# Moment         
# CofR           : (0.0000000000e+00 0.0000000000e+00 0.0000000000e+00)
#                
# Time           	(total_x total_y total_z)	(pressure_x pressure_y pressure_z)	(viscous_x viscous_y viscous_z)
1.801            	(-1.7719204740e-01 -1.5777211663e-02 -7.5173771071e-03)	(-1.7656462807e-01 -1.5619221698e-02 -6.8691098836e-03)	(-6.2741932799e-04 -1.5798996542e-04 -6.4826722352e-04)
1.802            	(-1.7752302810e-01 -1.5797601796e-02 -7.5433087688e-03)	(-1.7689543978e-01 -1.5639956451e-02 -6.8942393059e-03)	(-6.2758831668e-04 -1.5764534518e-04 -6.4906946289e-04)
1.803            	(-1.7787030132e-01 -1.5805629044e-02 -7.5143625808e-03)	(-1.7724254387e-01 -1.5648363908e-02 -6.8647116089e-03)	(-6.2775744902e-04 -1.5726513605e-04 -6.4965097190e-04)
1.804            	(-1.7778811797e-01 -1.5826948693e-02 -7.4368160507e-03)	(-1.7716027758e-01 -1.5670114732e-02 -6.7868530420e-03)	(-6.2784039451e-04 -1.5683396102e-04 -6.4996300867e-04)
1.805            	(-1.7814284888e-01 -1.5844812655e-02 -7.5275809738e-03)	(-1.7751489434e-01 -1.5688373444e-02 -6.8770678173e-03)	(-6.2795454721e-04 -1.5643921152e-04 -6.5051315646e-04)
1.806            	(-1.7849967047e-01 -1.5863859228e-02 -7.5790566586e-03)	(-1.7787162417e-01 -1.5707804550e-02 -6.9278511613e-03)	(-6.2804629843e-04 -1.5605467820e-04 -6.5120549733e-04)
1.807            	(-1.7891402279e-01 -1.5872384071e-02 -7.5852933776e-03)	(-1.7828586582e-01 -1.5716736851e-02 -6.9335373723e-03)	(-6.2815697072e-04 -1.5564722010e-04 -6.5175600524e-04)
1.808            	(-1.7941365399e-01 -1.5894755849e-02 -7.6464472249e-03)	(-1.7878541187e-01 -1.5739498071e-02 -6.9939890434e-03)	(-6.2824212730e-04 -1.5525777844e-04 -6.5245818148e-04)
1.809            	(-1.7567728805e-01 -1.5836617208e-02 -7.1558068783e-03)	(-1.7504930644e-01 -1.5682018500e-02 -6.5040856671e-03)	(-6.2798161311e-04 -1.5459870811e-04 -6.5172121124e-04)
1.81             	(-1.7683870560e-01 -1.5780864552e-02 -7.3673424506e-03)	(-1.7621086032e-01 -1.5626813617e-02 -6.7156233059e-03)	(-6.2784527748e-04 -1.5405093570e-04 -6.5171914474e-04)
1.811            	(-1.8039339391e-01 -1.5999562016e-02 -7.7368666157e-03)	(-1.7976543633e-01 -1.5845849784e-02 -7.0843090750e-03)	(-6.2795757218e-04 -1.5371223186e-04 -6.5255754070e-04)
1.812            	(-1.8066309402e-01 -1.5971006120e-02 -7.7349820528e-03)	(-1.8003505301e-01 -1.5817661883e-02 -7.0816559894e-03)	(-6.2804101025e-04 -1.5334423783e-04 -6.5332606341e-04)
1.813            	(-1.7958570891e-01 -1.5831643902e-02 -7.5045302081e-03)	(-1.7895769885e-01 -1.5678839936e-02 -6.8512407751e-03)	(-6.2801005065e-04 -1.5280396544e-04 -6.5328943303e-04)
1.814            	(-1.8096458440e-01 -1.6080534757e-02 -7.7445234264e-03)	(-1.8033657645e-01 -1.5928072057e-02 -7.0904334651e-03)	(-6.2800795264e-04 -1.5246269944e-04 -6.5408996131e-04)
1.815            	(-1.8177594520e-01 -1.6038168056e-02 -7.8532322877e-03)	(-1.8114784819e-01 -1.5886028021e-02 -7.1981133653e-03)	(-6.2809701066e-04 -1.5214003476e-04 -6.5511892244e-04)
1.816            	(-1.8230111487e-01 -1.6033991877e-02 -7.8269570346e-03)	(-1.8167294364e-01 -1.5882202489e-02 -7.1709370788e-03)	(-6.2817123115e-04 -1.5178938750e-04 -6.5601995580e-04)
1.817            	(-1.8240627905e-01 -1.6043620619e-02 -7.8053475815e-03)	(-1.8177810161e-01 -1.5892214599e-02 -7.1486110096e-03)	(-6.2817744187e-04 -1.5140601997e-04 -6.5673657191e-04)
1.818            	(-1.8175068373e-01 -1.6071460472e-02 -7.6962247801e-03)	(-1.8112269732e-01 -1.5920503401e-02 -7.0391223874e-03)	(-6.2798641375e-04 -1.5095707058e-04 -6.5710239273e-04)
1.819            	(-1.8301687736e-01 -1.6056108178e-02 -7.8344133459e-03)	(-1.8238898363e-01 -1.5905559574e-02 -7.1766467095e-03)	(-6.2789373618e-04 -1.5054860395e-04 -6.5776663644e-04)
1.82             	(-1.8344834053e-01 -1.6075028216e-02 -7.8672237095e-03)	(-1.8282056161e-01 -1.5924883541e-02 -7.2087154040e-03)	(-6.2777891269e-04 -1.5014467535e-04 -6.5850830546e-04)
1.821            	(-1.8371210446e-01 -1.6077689507e-02 -7.8819123670e-03)	(-1.8308445731e-01 -1.5927960548e-02 -7.2226986382e-03)	(-6.2764715199e-04 -1.4972895939e-04 -6.5921372879e-04)
1.822            	(-1.8427490233e-01 -1.6086237325e-02 -7.8937011602e-03)	(-1.8364737753e-01 -1.5936932513e-02 -7.2337908343e-03)	(-6.2752480526e-04 -1.4930481157e-04 -6.5991032587e-04)
1.823            	(-1.8415586738e-01 -1.6104970438e-02 -7.9101439633e-03)	(-1.8352850649e-01 -1.5956090912e-02 -7.2495139146e-03)	(-6.2736089386e-04 -1.4887952664e-04 -6.6063004871e-04)
1.824            	(-1.8459415967e-01 -1.6114927335e-02 -7.9320894456e-03)	(-1.8396697300e-01 -1.5966480160e-02 -7.2707244328e-03)	(-6.2718666331e-04 -1.4844717499e-04 -6.6136501279e-04)
1.825            	(-1.8502923704e-01 -1.6113969179e-02 -7.9402304427e-03)	(-1.8440220800e-01 -1.5965977363e-02 -7.2782218979e-03)	(-6.2702903924e-04 -1.4799181573e-04 -6.6200854476e-04)
1.826            	(-1.8534052782e-01 -1.6124998145e-02 -7.9572820325e-03)	(-1.8471365656e-01 -1.5977466382e-02 -7.2946077245e-03)	(-6.2687126339e-04 -1.4753176310e-04 -6.6267430801e-04)
1.827            	(-1.7994451238e-01 -1.6047253526e-02 -7.6363292568e-03)	(-1.7931838747e-01 -1.5900293862e-02 -6.9733418278e-03)	(-6.2612491906e-04 -1.4695966413e-04 -6.6298742901e-04)
1.828            	(-1.8557243701e-01 -1.6136139325e-02 -7.7419757471e-03)	(-1.8494624614e-01 -1.5989756432e-02 -7.0792220572e-03)	(-6.2619086516e-04 -1.4638289358e-04 -6.6275368991e-04)
1.829            	(-1.8634568427e-01 -1.6196085254e-02 -8.0192400929e-03)	(-1.8571950438e-01 -1.6050135590e-02 -7.3557461567e-03)	(-6.2617988498e-04 -1.4594966441e-04 -6.6349393620e-04)
1.83             	(-1.8672615691e-01 -1.6197413241e-02 -8.0319495603e-03)	(-1.8610001657e-01 -1.6051904623e-02 -7.3677030192e-03)	(-6.2614034173e-04 -1.4550861814e-04 -6.6424654106e-04)
1.831            	(-1.8675490129e-01 -1.6213192214e-02 -8.0340766917e-03)	(-1.8612885796e-01 -1.6068138839e-02 -7.3691365963e-03)	(-6.2604333409e-04 -1.4505337524e-04 -6.6494009538e-04)
1.832            	(-1.8676078362e-01 -1.6227942371e-02 -7.9874309227e-03)	(-1.8613489495e-01 -1.6083381236e-02 -7.3220042353e-03)	(-6.2588867135e-04 -1.4456113457e-04 -6.6542668738e-04)
1.833            	(-1.8746765800e-01 -1.6226399207e-02 -8.0592709474e-03)	(-1.8684187830e-01 -1.6082314730e-02 -7.3932231806e-03)	(-6.2577970466e-04 -1.4408447686e-04 -6.6604776678e-04)
1.834            	(-1.8797946130e-01 -1.6242521220e-02 -8.1092438807e-03)	(-1.8735379896e-01 -1.6098902430e-02 -7.4424691989e-03)	(-6.2566234221e-04 -1.4361878994e-04 -6.6677468184e-04)
1.835            	(-1.8813437886e-01 -1.6249959679e-02 -8.1358851755e-03)	(-1.8750887659e-01 -1.6106812474e-02 -7.4683871730e-03)	(-6.2550227377e-04 -1.4314720426e-04 -6.6749800252e-04)
1.836            	(-1.8771708012e-01 -1.6278221507e-02 -8.0876606687e-03)	(-1.8709187743e-01 -1.6135574824e-02 -7.4195851484e-03)	(-6.2520269074e-04 -1.4264668223e-04 -6.6807552038e-04)
1.837            	(-1.8819755146e-01 -1.6279738443e-02 -8.1617858223e-03)	(-1.8757259400e-01 -1.6137582635e-02 -7.4930123477e-03)	(-6.2495746208e-04 -1.4215580774e-04 -6.6877347460e-04)
1.838            	(-1.8865343220e-01 -1.6290517667e-02 -8.1612727278e-03)	(-1.8802873423e-01 -1.6148859205e-02 -7.4918349438e-03)	(-6.2469797623e-04 -1.4165846214e-04 -6.6943778396e-04)
1.839            	(-1.8913126846e-01 -1.6297331715e-02 -8.1917567167e-03)	(-1.8850681779e-01 -1.6156178864e-02 -7.5217071064e-03)	(-6.2445067443e-04 -1.4115285029e-04 -6.7004961030e-04)
1.84             	(-1.8903510930e-01 -1.6301242553e-02 -8.1404726336e-03)	(-1.8841097974e-01 -1.6160627505e-02 -7.4699779337e-03)	(-6.2412956414e-04 -1.4061504758e-04 -6.7049469999e-04)
1.841            	(-1.8916119009e-01 -1.6229117172e-02 -8.1230543265e-03)	(-1.8853734075e-01 -1.6089083039e-02 -7.4522679882e-03)	(-6.2384934002e-04 -1.4003413249e-04 -6.7078633834e-04)
1.842            	(-1.8963611611e-01 -1.6353688887e-02 -8.2208718166e-03)	(-1.8901259551e-01 -1.6214159407e-02 -7.5494591852e-03)	(-6.2352060078e-04 -1.3952948029e-04 -6.7141263137e-04)
1.843            	(-1.8788520237e-01 -1.6101235329e-02 -8.0491095693e-03)	(-1.8726206817e-01 -1.5962363996e-02 -7.3776349560e-03)	(-6.2313420113e-04 -1.3887133262e-04 -6.7147461337e-04)
1.844            	(-1.8825647701e-01 -1.6341596910e-02 -7.9204763751e-03)	(-1.8763382657e-01 -1.6203362331e-02 -7.2493264178e-03)	(-6.2265043765e-04 -1.3823457920e-04 -6.7114995732e-04)
1.845            	(-1.8964089162e-01 -1.6340905182e-02 -8.1520613490e-03)	(-1.8901854957e-01 -1.6203228507e-02 -7.4807042001e-03)	(-6.2234205030e-04 -1.3767667521e-04 -6.7135714886e-04)
1.846            	(-1.9116254717e-01 -1.6396221154e-02 -8.3280220509e-03)	(-1.9054047324e-01 -1.6259032532e-02 -7.6559816758e-03)	(-6.2207392524e-04 -1.3718862191e-04 -6.7204037510e-04)
1.847            	(-1.9115241472e-01 -1.6381322698e-02 -8.3633326267e-03)	(-1.9053067646e-01 -1.6244629856e-02 -7.6905550156e-03)	(-6.2173826589e-04 -1.3669284164e-04 -6.7277761112e-04)
1.848            	(-1.9135907239e-01 -1.6400772133e-02 -8.3635348526e-03)	(-1.9073771272e-01 -1.6264584620e-02 -7.6900710855e-03)	(-6.2135967174e-04 -1.3618751286e-04 -6.7346376707e-04)
1.849            	(-1.9115915796e-01 -1.6414160217e-02 -8.2704996004e-03)	(-1.9053822262e-01 -1.6278527145e-02 -7.5967533880e-03)	(-6.2093533602e-04 -1.3563307213e-04 -6.7374621242e-04)
1.85             	(-1.9210193875e-01 -1.6414087182e-02 -8.4192924743e-03)	(-1.9148137108e-01 -1.6278970773e-02 -7.7448885662e-03)	(-6.2056767088e-04 -1.3511640944e-04 -6.7440390803e-04)
1.851            	(-1.9220830229e-01 -1.6410416440e-02 -8.4116832079e-03)	(-1.9158813412e-01 -1.6275832931e-02 -7.7367244299e-03)	(-6.2016817183e-04 -1.3458350871e-04 -6.7495877805e-04)
1.852            	(-1.9241235432e-01 -1.6428435165e-02 -8.4343569503e-03)	(-1.9179263215e-01 -1.6294385750e-02 -7.7588049516e-03)	(-6.1972216896e-04 -1.3404941510e-04 -6.7555199869e-04)
1.853            	(-1.9287705026e-01 -1.6435314185e-02 -8.4561061677e-03)	(-1.9225773807e-01 -1.6301800658e-02 -7.7800167378e-03)	(-6.1931219172e-04 -1.3351352732e-04 -6.7608942988e-04)
1.854            	(-1.9297856458e-01 -1.6437846944e-02 -8.4473009026e-03)	(-1.9235972631e-01 -1.6304890286e-02 -7.7707459073e-03)	(-6.1883827597e-04 -1.3295665734e-04 -6.7655499526e-04)
1.855            	(-1.9333080249e-01 -1.6442906607e-02 -8.4643682107e-03)	(-1.9271242539e-01 -1.6310514166e-02 -7.7874110946e-03)	(-6.1837710594e-04 -1.3239244102e-04 -6.7695711612e-04)
1.856            	(-1.9362169471e-01 -1.6453775726e-02 -8.5145615622e-03)	(-1.9300380318e-01 -1.6321941185e-02 -7.8370868116e-03)	(-6.1789153160e-04 -1.3183454103e-04 -6.7747475061e-04)
1.857            	(-1.9303724447e-01 -1.6475930677e-02 -8.3986599103e-03)	(-1.9241994172e-01 -1.6344688350e-02 -7.7210118973e-03)	(-6.1730275007e-04 -1.3124232671e-04 -6.7764801299e-04)
1.858            	(-1.9389429319e-01 -1.6474682133e-02 -8.5467197824e-03)	(-1.9327750537e-01 -1.6344005361e-02 -7.8685684793e-03)	(-6.1678781738e-04 -1.3067677156e-04 -6.7815130309e-04)
1.859            	(-1.9404345885e-01 -1.6483053771e-02 -8.5664588272e-03)	(-1.9342720881e-01 -1.6352948617e-02 -7.8878258101e-03)	(-6.1625004825e-04 -1.3010515364e-04 -6.7863301709e-04)
1.86             	(-1.9163182489e-01 -1.6506900704e-02 -8.3653332389e-03)	(-1.9101637935e-01 -1.6377434681e-02 -7.6866565763e-03)	(-6.1544553382e-04 -1.2946602298e-04 -6.7867666262e-04)
1.861            	(-1.9116130991e-01 -1.6460990160e-02 -8.3150795129e-03)	(-1.9054663871e-01 -1.6332181086e-02 -7.6364679752e-03)	(-6.1467119943e-04 -1.2880907395e-04 -6.7861153769e-04)
1.862            	(-1.9401907939e-01 -1.6534854662e-02 -8.5642952564e-03)	(-1.9340490981e-01 -1.6406623816e-02 -7.8853021629e-03)	(-6.1416958044e-04 -1.2823084646e-04 -6.7899309351e-04)
1.863            	(-1.9475153784e-01 -1.6511739869e-02 -8.6347832030e-03)	(-1.9413785076e-01 -1.6384087143e-02 -7.9553484247e-03)	(-6.1368707825e-04 -1.2765272567e-04 -6.7943477831e-04)
1.864            	(-1.9478091862e-01 -1.6531200789e-02 -8.6767170478e-03)	(-1.9416778231e-01 -1.6404115435e-02 -7.9967270412e-03)	(-6.1313631508e-04 -1.2708535408e-04 -6.7999000663e-04)
1.865            	(-1.9416798252e-01 -1.6547239806e-02 -8.5798028988e-03)	(-1.9355551149e-01 -1.6420752277e-02 -7.8995657366e-03)	(-6.1247103260e-04 -1.2648752886e-04 -6.8023716221e-04)
1.866            	(-1.9517804527e-01 -1.6544850624e-02 -8.7127747597e-03)	(-1.9456613317e-01 -1.6418940517e-02 -8.0320180347e-03)	(-6.1191210155e-04 -1.2591010699e-04 -6.8075672493e-04)
1.867            	(-1.9547219197e-01 -1.6544340017e-02 -8.7464730074e-03)	(-1.9486085370e-01 -1.6419006219e-02 -8.0651478146e-03)	(-6.1133826870e-04 -1.2533379725e-04 -6.8132519283e-04)
1.868            	(-1.9584995960e-01 -1.6535280037e-02 -8.7462324446e-03)	(-1.9523921622e-01 -1.6410545041e-02 -8.0644525798e-03)	(-6.1074337789e-04 -1.2473499538e-04 -6.8177986472e-04)
1.869            	(-1.9468466086e-01 -1.6429373533e-02 -8.5707302114e-03)	(-1.9407461648e-01 -1.6305339697e-02 -7.8890863098e-03)	(-6.1004438387e-04 -1.2403383623e-04 -6.8164390152e-04)
1.87             	(-1.9610588232e-01 -1.6625450415e-02 -8.8124500283e-03)	(-1.9549649377e-01 -1.6501987669e-02 -8.1302504003e-03)	(-6.0938855614e-04 -1.2346274604e-04 -6.8219962808e-04)
1.871            	(-1.9523991252e-01 -1.6460705896e-02 -8.7429194140e-03)	(-1.9463122951e-01 -1.6337895280e-02 -8.0604107801e-03)	(-6.0868301508e-04 -1.2281061554e-04 -6.8250863388e-04)
1.872            	(-1.9659628062e-01 -1.6578118014e-02 -8.7933076542e-03)	(-1.9598827046e-01 -1.6455922744e-02 -8.1104876506e-03)	(-6.0801016297e-04 -1.2219527085e-04 -6.8282000364e-04)
1.873            	(-1.9669666383e-01 -1.6576358464e-02 -8.8764325224e-03)	(-1.9608932666e-01 -1.6454769986e-02 -8.1931424352e-03)	(-6.0733717228e-04 -1.2158847789e-04 -6.8329008714e-04)
1.874            	(-1.9676098633e-01 -1.6588298785e-02 -8.8741874687e-03)	(-1.9615435344e-01 -1.6467330911e-02 -8.1905048017e-03)	(-6.0663289606e-04 -1.2096787387e-04 -6.8368266695e-04)
1.875            	(-1.9712101762e-01 -1.6582378405e-02 -8.9059232809e-03)	(-1.9651507930e-01 -1.6462035816e-02 -8.2218755642e-03)	(-6.0593832208e-04 -1.2034258970e-04 -6.8404771674e-04)
1.876            	(-1.9756627513e-01 -1.6580749600e-02 -8.8853580889e-03)	(-1.9696101550e-01 -1.6461059377e-02 -8.2011854283e-03)	(-6.0525962680e-04 -1.1969022284e-04 -6.8417266062e-04)
1.877            	(-1.9148822851e-01 -1.6459907929e-02 -8.7783891222e-03)	(-1.9088435524e-01 -1.6340894801e-02 -8.0935015367e-03)	(-6.0387327097e-04 -1.1901312799e-04 -6.8488758548e-04)
1.878            	(-1.9560995351e-01 -1.6435361256e-02 -8.6288818757e-03)	(-1.9500674171e-01 -1.6317132014e-02 -7.9448072310e-03)	(-6.0321180168e-04 -1.1822924204e-04 -6.8407464471e-04)
1.879            	(-1.9807925352e-01 -1.6619824002e-02 -8.9647151037e-03)	(-1.9747661630e-01 -1.6502222398e-02 -8.2805286373e-03)	(-6.0263722813e-04 -1.1760160440e-04 -6.8418646642e-04)
1.88             	(-1.9839307059e-01 -1.6615267137e-02 -9.0063089245e-03)	(-1.9779104286e-01 -1.6498311864e-02 -8.3220014001e-03)	(-6.0202773144e-04 -1.1695527359e-04 -6.8430752442e-04)
1.881            	(-1.9870910754e-01 -1.6593455998e-02 -9.0041330667e-03)	(-1.9810766967e-01 -1.6477159412e-02 -8.3197885564e-03)	(-6.0143787511e-04 -1.1629658609e-04 -6.8434451032e-04)
1.882            	(-1.9872875771e-01 -1.6597096291e-02 -9.0164682741e-03)	(-1.9812797714e-01 -1.6481475118e-02 -8.3320982365e-03)	(-6.0078057127e-04 -1.1562117290e-04 -6.8437003763e-04)
1.883            	(-1.9911642400e-01 -1.6605725887e-02 -9.0827683231e-03)	(-1.9851627093e-01 -1.6490754992e-02 -8.3981963444e-03)	(-6.0015307736e-04 -1.1497089564e-04 -6.8457197871e-04)
1.884            	(-1.9801534650e-01 -1.6679426047e-02 -9.0338289735e-03)	(-1.9741595973e-01 -1.6565111477e-02 -8.3491273128e-03)	(-5.9938676832e-04 -1.1431456990e-04 -6.8470166067e-04)
1.885            	(-1.9908092137e-01 -1.6633829596e-02 -9.0900014540e-03)	(-1.9848220467e-01 -1.6520183286e-02 -8.4052501283e-03)	(-5.9871670026e-04 -1.1364630941e-04 -6.8475132572e-04)
1.886            	(-1.9876147258e-01 -1.6631951920e-02 -9.1185459420e-03)	(-1.9816361334e-01 -1.6519002236e-02 -8.4337818786e-03)	(-5.9785923303e-04 -1.1294968416e-04 -6.8476406336e-04)
1.887            	(-1.9932500449e-01 -1.6639615177e-02 -9.1490402788e-03)	(-1.9872792217e-01 -1.6527356515e-02 -8.4642699981e-03)	(-5.9708232832e-04 -1.1225866127e-04 -6.8477028075e-04)
1.888            	(-1.9934107994e-01 -1.6645390657e-02 -9.1087005498e-03)	(-1.9874482001e-01 -1.6533851271e-02 -8.4240985724e-03)	(-5.9625993102e-04 -1.1153938574e-04 -6.8460197740e-04)
1.889            	(-1.9944177360e-01 -1.6653441295e-02 -9.1412753447e-03)	(-1.9884633164e-01 -1.6542610699e-02 -8.4567997216e-03)	(-5.9544195777e-04 -1.1083059603e-04 -6.8447562312e-04)
1.89             	(-1.9973631821e-01 -1.6648636660e-02 -9.1767422759e-03)	(-1.9914170482e-01 -1.6538516808e-02 -8.4923264151e-03)	(-5.9461339420e-04 -1.1011985159e-04 -6.8441586083e-04)
1.891            	(-1.9976956294e-01 -1.6647910679e-02 -9.1999435909e-03)	(-1.9917577916e-01 -1.6538497477e-02 -8.5155858330e-03)	(-5.9378378542e-04 -1.0941320154e-04 -6.8435775792e-04)
1.892            	(-1.9843429793e-01 -1.6699823789e-02 -9.1626412811e-03)	(-1.9784151701e-01 -1.6591134172e-02 -8.4784610046e-03)	(-5.9278091891e-04 -1.0868961759e-04 -6.8418027654e-04)
1.893            	(-1.9813024722e-01 -1.6742018666e-02 -9.0955960552e-03)	(-1.9753843410e-01 -1.6634069223e-02 -8.4119776547e-03)	(-5.9181311995e-04 -1.0794944368e-04 -6.8361840044e-04)
1.894            	(-1.9943313187e-01 -1.6695549277e-02 -9.3069030060e-03)	(-1.9884222111e-01 -1.6588306124e-02 -8.6232204771e-03)	(-5.9091076511e-04 -1.0724315373e-04 -6.8368252888e-04)
1.895            	(-2.0000569634e-01 -1.6688529649e-02 -9.2578548656e-03)	(-1.9941561024e-01 -1.6582014509e-02 -8.5744799555e-03)	(-5.9008610161e-04 -1.0651513942e-04 -6.8337491012e-04)
1.896            	(-1.9789206660e-01 -1.6489247944e-02 -9.0806776213e-03)	(-1.9730294442e-01 -1.6383587311e-02 -8.3981676147e-03)	(-5.8912217885e-04 -1.0566063271e-04 -6.8251000663e-04)
1.897            	(-2.0037959063e-01 -1.6793245808e-02 -9.3266021424e-03)	(-1.9979134190e-01 -1.6688279267e-02 -8.6443657790e-03)	(-5.8824873413e-04 -1.0496654159e-04 -6.8223636344e-04)
1.898            	(-2.0054792694e-01 -1.6733909424e-02 -9.3734342787e-03)	(-1.9996054246e-01 -1.6629666272e-02 -8.6914516551e-03)	(-5.8738447606e-04 -1.0424315214e-04 -6.8198262364e-04)
1.899            	(-2.0073046687e-01 -1.6736481916e-02 -9.3956120815e-03)	(-2.0014394093e-01 -1.6632970265e-02 -8.7139543520e-03)	(-5.8652593898e-04 -1.0351165074e-04 -6.8165772946e-04)
1.9              	(-2.0040450404e-01 -1.6757286177e-02 -9.3676783674e-03)	(-1.9981892313e-01 -1.6654522903e-02 -8.6864815815e-03)	(-5.8558091634e-04 -1.0276327376e-04 -6.8119678590e-04)
1.901            	(-2.0077316534e-01 -1.6745059539e-02 -9.4216615230e-03)	(-2.0018848041e-01 -1.6643046128e-02 -8.7408967586e-03)	(-5.8468492310e-04 -1.0201341104e-04 -6.8076476444e-04)
1.902            	(-2.0113175364e-01 -1.6741751777e-02 -9.4223680589e-03)	(-2.0054795310e-01 -1.6640505263e-02 -8.7421721502e-03)	(-5.8380053893e-04 -1.0124651346e-04 -6.8019590880e-04)
1.903            	(-2.0071352248e-01 -1.6747734703e-02 -9.4244989987e-03)	(-2.0013067412e-01 -1.6647256670e-02 -8.7448597890e-03)	(-5.8284836410e-04 -1.0047803302e-04 -6.7963920970e-04)
1.904            	(-2.0019835163e-01 -1.6751579484e-02 -9.3391744932e-03)	(-1.9961651658e-01 -1.6651901086e-02 -8.6604396146e-03)	(-5.8183504322e-04 -9.9678397762e-05 -6.7873487865e-04)
1.905            	(-2.0081655061e-01 -1.6760325018e-02 -9.4764034118e-03)	(-2.0023566691e-01 -1.6661423776e-02 -8.7982647385e-03)	(-5.8088369992e-04 -9.8901241239e-05 -6.7813867336e-04)
1.906            	(-2.0111219225e-01 -1.6761706357e-02 -9.4860462712e-03)	(-2.0053223491e-01 -1.6663591194e-02 -8.8085899813e-03)	(-5.7995733600e-04 -9.8115162399e-05 -6.7745628989e-04)
1.907            	(-1.9958634614e-01 -1.6780442239e-02 -9.3921932200e-03)	(-1.9900749456e-01 -1.6683133440e-02 -8.7155824694e-03)	(-5.7885157388e-04 -9.7308799220e-05 -6.7661075061e-04)
1.908            	(-1.9707971602e-01 -1.6640408341e-02 -9.3581790594e-03)	(-1.9650215907e-01 -1.6543952334e-02 -8.6822330356e-03)	(-5.7755694798e-04 -9.6456007420e-05 -6.7594602383e-04)
1.909            	(-2.0113181713e-01 -1.6823796329e-02 -9.5193134530e-03)	(-2.0055509636e-01 -1.6728113095e-02 -8.8441885551e-03)	(-5.7672077489e-04 -9.5683233946e-05 -6.7512489788e-04)
1.91             	(-2.0083713909e-01 -1.6805063985e-02 -9.5865161579e-03)	(-2.0026133486e-01 -1.6710156173e-02 -8.9120362830e-03)	(-5.7580422809e-04 -9.4907812026e-05 -6.7447987486e-04)
1.911            	(-1.9983208408e-01 -1.6841173362e-02 -9.6592731813e-03)	(-1.9925732808e-01 -1.6747015660e-02 -8.9849696144e-03)	(-5.7475600472e-04 -9.4157701956e-05 -6.7430356690e-04)
1.912            	(-2.0104216434e-01 -1.6827674725e-02 -9.6158405794e-03)	(-2.0046834839e-01 -1.6734301851e-02 -8.9422820602e-03)	(-5.7381594627e-04 -9.3372874520e-05 -6.7355851929e-04)
1.913            	(-2.0108325031e-01 -1.6840928913e-02 -9.6512096884e-03)	(-2.0051036178e-01 -1.6748336553e-02 -8.9784105403e-03)	(-5.7288853342e-04 -9.2592359731e-05 -6.7279914811e-04)
1.914            	(-2.0106381378e-01 -1.6833281431e-02 -9.6584269804e-03)	(-2.0049189791e-01 -1.6741483531e-02 -8.9864377564e-03)	(-5.7191586929e-04 -9.1797900199e-05 -6.7198922397e-04)
1.915            	(-2.0130418501e-01 -1.6837934105e-02 -9.6947932369e-03)	(-2.0073318772e-01 -1.6746918441e-02 -9.0236116806e-03)	(-5.7099728937e-04 -9.1015664043e-05 -6.7118155625e-04)
1.916            	(-2.0124673874e-01 -1.6839794415e-02 -9.7162248989e-03)	(-2.0067671112e-01 -1.6749580686e-02 -9.0459140547e-03)	(-5.7002762616e-04 -9.0213729548e-05 -6.7031084421e-04)
1.917            	(-2.0125745458e-01 -1.6842815884e-02 -9.7499463723e-03)	(-2.0068836078e-01 -1.6753388839e-02 -9.0804620052e-03)	(-5.6909379501e-04 -8.9427045520e-05 -6.6948436714e-04)
1.918            	(-2.0110417622e-01 -1.6866492849e-02 -9.7551241623e-03)	(-2.0053608019e-01 -1.6777869806e-02 -9.0865647579e-03)	(-5.6809603160e-04 -8.8623043419e-05 -6.6855940435e-04)
1.919            	(-2.0096743387e-01 -1.6856281829e-02 -9.7196370170e-03)	(-2.0040031116e-01 -1.6768455161e-02 -9.0521290375e-03)	(-5.6712270864e-04 -8.7826668711e-05 -6.6750797957e-04)
1.92             	(-2.0113514073e-01 -1.6855603916e-02 -9.8346966155e-03)	(-2.0056899683e-01 -1.6768580865e-02 -9.1680229397e-03)	(-5.6614390123e-04 -8.7023050531e-05 -6.6667367581e-04)
1.921            	(-1.9899992881e-01 -1.6513005135e-02 -9.5859831468e-03)	(-1.9843476001e-01 -1.6426907487e-02 -8.9208226889e-03)	(-5.6516880396e-04 -8.6097648002e-05 -6.6516045792e-04)
1.922            	(-2.0179302812e-01 -1.6934711662e-02 -9.8926240308e-03)	(-2.0122877941e-01 -1.6849380161e-02 -9.2283428203e-03)	(-5.6424870843e-04 -8.5331500911e-05 -6.6428121053e-04)
1.923            	(-1.9796759150e-01 -1.6831022220e-02 -9.8353770914e-03)	(-1.9740462953e-01 -1.6746472762e-02 -9.1715390381e-03)	(-5.6296197159e-04 -8.4549457976e-05 -6.6383805323e-04)
1.924            	(-1.9963469470e-01 -1.6852716283e-02 -9.6396711853e-03)	(-1.9907271353e-01 -1.6769009675e-02 -8.9776218296e-03)	(-5.6198116779e-04 -8.3706608611e-05 -6.6204935565e-04)
1.925            	(-2.0126010966e-01 -1.6922861832e-02 -9.9204986261e-03)	(-2.0069896485e-01 -1.6839906666e-02 -9.2594076157e-03)	(-5.6114480972e-04 -8.2955165856e-05 -6.6109101039e-04)
1.926            	(-2.0160810314e-01 -1.6927057660e-02 -9.9243390233e-03)	(-2.0104784857e-01 -1.6844893130e-02 -9.2644173143e-03)	(-5.6025457788e-04 -8.2164530028e-05 -6.5992170905e-04)
1.927            	(-2.0184208085e-01 -1.6925216022e-02 -9.9606238254e-03)	(-2.0128264077e-01 -1.6843821347e-02 -9.3017981747e-03)	(-5.5944008385e-04 -8.1394674973e-05 -6.5882565074e-04)
1.928            	(-2.0199083293e-01 -1.6945546765e-02 -1.0004399714e-02)	(-2.0143228737e-01 -1.6864945088e-02 -9.3466557377e-03)	(-5.5854555416e-04 -8.0601677416e-05 -6.5774397661e-04)
1.929            	(-2.0175138900e-01 -1.6941135837e-02 -1.0024429534e-02)	(-2.0119371472e-01 -1.6861306685e-02 -9.3676762898e-03)	(-5.5767428028e-04 -7.9829151972e-05 -6.5675324411e-04)
1.93             	(-2.0155324074e-01 -1.6972497713e-02 -1.0004948065e-02)	(-2.0099651576e-01 -1.6893460714e-02 -9.3493389906e-03)	(-5.5672497926e-04 -7.9036998777e-05 -6.5560907391e-04)
1.931            	(-2.0161826636e-01 -1.6953713213e-02 -1.0046157356e-02)	(-2.0106245811e-01 -1.6875450747e-02 -9.3915460056e-03)	(-5.5580824309e-04 -7.8262466598e-05 -6.5461134994e-04)
1.932            	(-2.0189512498e-01 -1.6958053962e-02 -1.0086588298e-02)	(-2.0134023980e-01 -1.6880579474e-02 -9.4329921263e-03)	(-5.5488517440e-04 -7.7474487803e-05 -6.5359617190e-04)
1.933            	(-2.0148456227e-01 -1.6981597657e-02 -1.0117953268e-02)	(-2.0093062019e-01 -1.6904885720e-02 -9.4652325726e-03)	(-5.5394207866e-04 -7.6711937134e-05 -6.5272069543e-04)
1.934            	(-2.0187300756e-01 -1.6981766800e-02 -1.0149698786e-02)	(-2.0132000004e-01 -1.6905832384e-02 -9.4979122350e-03)	(-5.5300751837e-04 -7.5934416289e-05 -6.5178655101e-04)
1.935            	(-2.0178338389e-01 -1.6988857009e-02 -1.0198642153e-02)	(-2.0123129256e-01 -1.6913682824e-02 -9.5476845269e-03)	(-5.5209132501e-04 -7.5174185886e-05 -6.5095762565e-04)
1.936            	(-2.0195270385e-01 -1.6981767313e-02 -1.0205044514e-02)	(-2.0140158055e-01 -1.6907368406e-02 -9.5549886249e-03)	(-5.5112329562e-04 -7.4398906329e-05 -6.5005588894e-04)
1.937            	(-1.9938527310e-01 -1.7038125297e-02 -1.0182804535e-02)	(-1.9883542215e-01 -1.6964474803e-02 -9.5331811745e-03)	(-5.4985094511e-04 -7.3650493905e-05 -6.4962336083e-04)
1.938            	(-2.0130814589e-01 -1.7044880153e-02 -1.0192312141e-02)	(-2.0075929662e-01 -1.6972000465e-02 -9.5437988415e-03)	(-5.4884927620e-04 -7.2879688188e-05 -6.4851329998e-04)
1.939            	(-2.0096135294e-01 -1.7019505780e-02 -1.0307400991e-02)	(-2.0041356055e-01 -1.6947391504e-02 -9.6595736588e-03)	(-5.4779239339e-04 -7.2114276676e-05 -6.4782733234e-04)
1.94             	(-2.0092141273e-01 -1.7029505801e-02 -1.0321162709e-02)	(-2.0037476326e-01 -1.6958174568e-02 -9.6740313079e-03)	(-5.4664947159e-04 -7.1331232228e-05 -6.4713140093e-04)
1.941            	(-2.0106274603e-01 -1.7025329909e-02 -1.0364014751e-02)	(-2.0051719063e-01 -1.6954767984e-02 -9.7175444955e-03)	(-5.4555540617e-04 -7.0561925489e-05 -6.4647025558e-04)
1.942            	(-2.0113585472e-01 -1.7023415864e-02 -1.0382847368e-02)	(-2.0059145255e-01 -1.6953640374e-02 -9.7370699301e-03)	(-5.4440217250e-04 -6.9775490077e-05 -6.4577743839e-04)
1.943            	(-2.0103738989e-01 -1.7030715179e-02 -1.0405943939e-02)	(-2.0049412421e-01 -1.6961714213e-02 -9.7608549235e-03)	(-5.4326568364e-04 -6.9000966121e-05 -6.4508901575e-04)
1.944            	(-2.0075840353e-01 -1.6995249120e-02 -1.0436435192e-02)	(-2.0021635231e-01 -1.6927052965e-02 -9.7920057651e-03)	(-5.4205122358e-04 -6.8196154477e-05 -6.4442942739e-04)
1.945            	(-2.0094100217e-01 -1.6959386298e-02 -1.0230505885e-02)	(-2.0040003877e-01 -1.6892001770e-02 -9.5875200958e-03)	(-5.4096340448e-04 -6.7384528326e-05 -6.4298578959e-04)
1.946            	(-2.0082387127e-01 -1.7094526861e-02 -1.0517425435e-02)	(-2.0028420054e-01 -1.7027916228e-02 -9.8749986022e-03)	(-5.3967073046e-04 -6.6610632706e-05 -6.4242683282e-04)
1.947            	(-2.0076233110e-01 -1.7077384932e-02 -1.0536367561e-02)	(-2.0022391962e-01 -1.7011552436e-02 -9.8946025254e-03)	(-5.3841147878e-04 -6.5832496767e-05 -6.4176503536e-04)
1.948            	(-2.0087268961e-01 -1.7070089679e-02 -1.0547560550e-02)	(-2.0033554808e-01 -1.7005049655e-02 -9.9065013348e-03)	(-5.3714153625e-04 -6.5040024717e-05 -6.4105921529e-04)
1.949            	(-2.0093043760e-01 -1.7089525964e-02 -1.0582945659e-02)	(-2.0039454631e-01 -1.7025260645e-02 -9.9426173675e-03)	(-5.3589129095e-04 -6.4265319025e-05 -6.4032829177e-04)
1.95             	(-2.0102883108e-01 -1.7079657411e-02 -1.0602276609e-02)	(-2.0049420511e-01 -1.7016179651e-02 -9.9627056960e-03)	(-5.3462597672e-04 -6.3477759524e-05 -6.3957091283e-04)
1.951            	(-2.0088936878e-01 -1.7071344293e-02 -1.0615971458e-02)	(-2.0035597774e-01 -1.7008641150e-02 -9.9771216553e-03)	(-5.3339104073e-04 -6.2703142626e-05 -6.3884980267e-04)
1.952            	(-1.9494860651e-01 -1.6952943686e-02 -1.0416982175e-02)	(-1.9441699781e-01 -1.6891083870e-02 -9.7785241777e-03)	(-5.3160870285e-04 -6.1859816223e-05 -6.3845799757e-04)
1.953            	(-2.0195840852e-01 -1.7165284009e-02 -1.0526756060e-02)	(-2.0142767795e-01 -1.7104140026e-02 -9.8896617404e-03)	(-5.3073057120e-04 -6.1143983529e-05 -6.3709431942e-04)
1.954            	(-2.0119661906e-01 -1.7152357328e-02 -1.0636652771e-02)	(-2.0066691047e-01 -1.7091930473e-02 -1.0000357631e-02)	(-5.2970859158e-04 -6.0426855166e-05 -6.3629514011e-04)
1.955            	(-2.0134530154e-01 -1.7142176600e-02 -1.0692318170e-02)	(-2.0081660628e-01 -1.7082454840e-02 -1.0056635304e-02)	(-5.2869525231e-04 -5.9721760053e-05 -6.3568286605e-04)
1.956            	(-2.0014137229e-01 -1.7190335519e-02 -1.0705735548e-02)	(-1.9961385944e-01 -1.7131313361e-02 -1.0070422115e-02)	(-5.2751284735e-04 -5.9022158367e-05 -6.3531343243e-04)
1.957            	(-2.0077677643e-01 -1.7154623424e-02 -1.0776510027e-02)	(-2.0025039396e-01 -1.7096296304e-02 -1.0141451884e-02)	(-5.2638246935e-04 -5.8327119588e-05 -6.3505814303e-04)
1.958            	(-1.9988203899e-01 -1.7128667874e-02 -1.0827798570e-02)	(-1.9935693562e-01 -1.7071052538e-02 -1.0192765223e-02)	(-5.2510336630e-04 -5.7615335576e-05 -6.3503334717e-04)
1.959            	(-2.0093931892e-01 -1.7119663364e-02 -1.0852209756e-02)	(-2.0041527538e-01 -1.7062732902e-02 -1.0217305385e-02)	(-5.2404353554e-04 -5.6930461726e-05 -6.3490437152e-04)
1.96             	(-2.0047785379e-01 -1.7115888207e-02 -1.0897584088e-02)	(-1.9995490485e-01 -1.7059639160e-02 -1.0262458709e-02)	(-5.2294894155e-04 -5.6249046741e-05 -6.3512537939e-04)