# Forces     
# CofR       : (0.000000e+00 0.000000e+00 0.000000e+00)
# Time       forces(pressure viscous porous) moment(pressure viscous porous)
5e-06        	((9.942385e+02 1.589767e+03 8.469358e+00) (4.575989e-02 1.944439e-03 -5.308714e-04) (0.000000e+00 0.000000e+00 0.000000e+00)) ((-7.799715e+03 4.881691e+03 5.592343e-01) (-9.519176e-03 2.241514e-01 -5.879184e-04) (0.000000e+00 0.000000e+00 0.000000e+00))
1e-05        	((-3.298783e+02 -5.268759e+02 -2.686067e+00) (4.247973e-02 -2.031088e-03 -5.540124e-04) (0.000000e+00 0.000000e+00 0.000000e+00)) ((2.585001e+03 -1.619711e+03 -2.434845e-01) (9.932838e-03 2.080651e-01 -5.777819e-04) (0.000000e+00 0.000000e+00 0.000000e+00))
1.5e-05      	((-1.401509e-01 -3.431556e-01 2.773401e-03) (4.103926e-02 -3.977923e-03 -7.151654e-04) (0.000000e+00 0.000000e+00 0.000000e+00)) ((1.691767e+00 -6.890695e-01 -1.253580e-02) (1.945601e-02 2.010001e-01 -5.787900e-04) (0.000000e+00 0.000000e+00 0.000000e+00))
2e-05        	((5.028645e-01 7.187529e-01 3.238292e-03) (4.017347e-02 -5.182102e-03 -8.642540e-04) (0.000000e+00 0.000000e+00 0.000000e+00)) ((-3.510158e+00 2.462810e+00 -2.228482e-02) (2.534454e-02 1.967547e-01 -5.815446e-04) (0.000000e+00 0.000000e+00 0.000000e+00))
2.5e-05      	((5.879989e-01 9.132055e-01 1.400355e-02) (3.953045e-02 -6.069292e-03 -9.872568e-04) (0.000000e+00 0.000000e+00 0.000000e+00)) ((-4.462041e+00 2.879805e+00 -2.819601e-02) (2.968177e-02 1.936035e-01 -5.848958e-04) (0.000000e+00 0.000000e+00 0.000000e+00))
3e-05        	((4.707403e-01 7.537242e-01 1.683047e-02) (3.901478e-02 -6.767400e-03 -1.090741e-03) (0.000000e+00 0.000000e+00 0.000000e+00)) ((-3.682778e+00 2.305550e+00 -2.724870e-02) (3.309380e-02 1.910777e-01 -5.885828e-04) (0.000000e+00 0.000000e+00 0.000000e+00))
3.5e-05      	((4.112226e-01 6.781426e-01 1.975577e-02) (3.857959e-02 -7.341402e-03 -1.181370e-03) (0.000000e+00 0.000000e+00 0.000000e+00)) ((-3.313607e+00 2.014012e+00 -2.687451e-02) (3.589871e-02 1.889471e-01 -5.920034e-04) (0.000000e+00 0.000000e+00 0.000000e+00))
4e-05        	((4.037483e-01 6.765418e-01 2.180288e-02) (3.820193e-02 -7.825290e-03 -1.264358e-03) (0.000000e+00 0.000000e+00 0.000000e+00)) ((-3.306568e+00 1.977752e+00 -2.633128e-02) (3.826292e-02 1.870987e-01 -5.950168e-04) (0.000000e+00 0.000000e+00 0.000000e+00))
4.5e-05      	((4.029892e-01 6.827054e-01 2.346525e-02) (3.786976e-02 -8.239085e-03 -1.342675e-03) (0.000000e+00 0.000000e+00 0.000000e+00)) ((-3.337282e+00 1.974327e+00 -2.582691e-02) (4.028447e-02 1.854733e-01 -5.976570e-04) (0.000000e+00 0.000000e+00 0.000000e+00))
5e-05        	((4.044459e-01 6.911473e-01 2.532240e-02) (3.757382e-02 -8.597999e-03 -1.417750e-03) (0.000000e+00 0.000000e+00 0.000000e+00)) ((-3.378957e+00 1.981686e+00 -2.541624e-02) (4.203781e-02 1.840255e-01 -5.999994e-04) (0.000000e+00 0.000000e+00 0.000000e+00))
5.5e-05      	((4.092537e-01 7.038032e-01 2.705367e-02) (3.730493e-02 -8.914217e-03 -1.488834e-03) (0.000000e+00 0.000000e+00 0.000000e+00)) ((-3.441192e+00 2.005425e+00 -2.498649e-02) (4.358258e-02 1.827101e-01 -6.021009e-04) (0.000000e+00 0.000000e+00 0.000000e+00))
6e-05        	((4.160908e-01 7.190278e-01 2.887489e-02) (3.705606e-02 -9.196182e-03 -1.555337e-03) (0.000000e+00 0.000000e+00 0.000000e+00)) ((-3.515938e+00 2.039071e+00 -2.455350e-02) (4.496005e-02 1.814929e-01 -6.039862e-04) (0.000000e+00 0.000000e+00 0.000000e+00))
6.5e-05      	((4.223630e-01 7.334447e-01 3.064756e-02) (3.682340e-02 -9.449714e-03 -1.617087e-03) (0.000000e+00 0.000000e+00 0.000000e+00)) ((-3.586709e+00 2.069934e+00 -2.415092e-02) (4.619864e-02 1.803550e-01 -6.056167e-04) (0.000000e+00 0.000000e+00 0.000000e+00))
7e-05        	((4.283521e-01 7.471130e-01 3.228979e-02) (3.660464e-02 -9.678791e-03 -1.673980e-03) (0.000000e+00 0.000000e+00 0.000000e+00)) ((-3.653787e+00 2.099396e+00 -2.375948e-02) (4.731777e-02 1.792852e-01 -6.069838e-04) (0.000000e+00 0.000000e+00 0.000000e+00))
7.5e-05      	((4.334159e-01 7.591906e-01 3.382305e-02) (3.639835e-02 -9.885994e-03 -1.726141e-03) (0.000000e+00 0.000000e+00 0.000000e+00)) ((-3.713083e+00 2.124322e+00 -2.339802e-02) (4.833009e-02 1.782764e-01 -6.080646e-04) (0.000000e+00 0.000000e+00 0.000000e+00))
8e-05        	((4.378464e-01 7.701016e-01 3.522877e-02) (3.620351e-02 -1.007324e-02 -1.773645e-03) (0.000000e+00 0.000000e+00 0.000000e+00)) ((-3.766615e+00 2.146105e+00 -2.307990e-02) (4.924497e-02 1.773237e-01 -6.088363e-04) (0.000000e+00 0.000000e+00 0.000000e+00))
8.5e-05      	((4.411739e-01 7.790941e-01 3.659550e-02) (3.601902e-02 -1.024185e-02 -1.816545e-03) (0.000000e+00 0.000000e+00 0.000000e+00)) ((-3.810728e+00 2.162469e+00 -2.280833e-02) (5.006891e-02 1.764216e-01 -6.093104e-04) (0.000000e+00 0.000000e+00 0.000000e+00))
9e-05        	((4.446285e-01 7.880177e-01 3.792840e-02) (3.584390e-02 -1.039271e-02 -1.855023e-03) (0.000000e+00 0.000000e+00 0.000000e+00)) ((-3.854513e+00 2.179465e+00 -2.253564e-02) (5.080626e-02 1.755654e-01 -6.094914e-04) (0.000000e+00 0.000000e+00 0.000000e+00))
9.5e-05      	((4.482355e-01 7.970667e-01 3.914526e-02) (3.567740e-02 -1.052690e-02 -1.889451e-03) (0.000000e+00 0.000000e+00 0.000000e+00)) ((-3.898890e+00 2.197189e+00 -2.227219e-02) (5.146226e-02 1.747513e-01 -6.093901e-04) (0.000000e+00 0.000000e+00 0.000000e+00))
0.0001       	((4.513442e-01 8.051477e-01 4.036058e-02) (3.551876e-02 -1.064538e-02 -1.919963e-03) (0.000000e+00 0.000000e+00 0.000000e+00)) ((-3.938577e+00 2.212507e+00 -2.198973e-02) (5.204165e-02 1.739755e-01 -6.090080e-04) (0.000000e+00 0.000000e+00 0.000000e+00))
0.000105     	((4.540546e-01 8.124571e-01 4.153113e-02) (3.536714e-02 -1.074898e-02 -1.946808e-03) (0.000000e+00 0.000000e+00 0.000000e+00)) ((-3.974414e+00 2.225827e+00 -2.176525e-02) (5.254845e-02 1.732342e-01 -6.083504e-04) (0.000000e+00 0.000000e+00 0.000000e+00))
0.00011      	((4.563252e-01 8.190768e-01 4.266734e-02) (3.522168e-02 -1.083891e-02 -1.969989e-03) (0.000000e+00 0.000000e+00 0.000000e+00)) ((-4.006840e+00 2.236969e+00 -2.157898e-02) (5.298854e-02 1.725230e-01 -6.074259e-04) (0.000000e+00 0.000000e+00 0.000000e+00))
0.000115     	((4.590810e-01 8.263681e-01 4.370022e-02) (3.508162e-02 -1.091616e-02 -1.989857e-03) (0.000000e+00 0.000000e+00 0.000000e+00)) ((-4.042567e+00 2.250493e+00 -2.136337e-02) (5.336679e-02 1.718382e-01 -6.062460e-04) (0.000000e+00 0.000000e+00 0.000000e+00))
0.00012      	((4.609835e-01 8.324126e-01 4.480838e-02) (3.494627e-02 -1.098207e-02 -2.006753e-03) (0.000000e+00 0.000000e+00 0.000000e+00)) ((-4.072129e+00 2.259801e+00 -2.122613e-02) (5.368972e-02 1.711764e-01 -6.048274e-04) (0.000000e+00 0.000000e+00 0.000000e+00))
0.000125     	((4.632157e-01 8.388956e-01 4.593620e-02) (3.481486e-02 -1.103785e-02 -2.020962e-03) (0.000000e+00 0.000000e+00 0.000000e+00)) ((-4.103873e+00 2.270754e+00 -2.107306e-02) (5.396317e-02 1.705340e-01 -6.031899e-04) (0.000000e+00 0.000000e+00 0.000000e+00))
0.00013      	((4.646095e-01 8.440606e-01 4.694559e-02) (3.468681e-02 -1.108471e-02 -2.032815e-03) (0.000000e+00 0.000000e+00 0.000000e+00)) ((-4.129140e+00 2.277573e+00 -2.095652e-02) (5.419305e-02 1.699081e-01 -6.013555e-04) (0.000000e+00 0.000000e+00 0.000000e+00))
0.000135     	((4.654423e-01 8.483937e-01 4.796816e-02) (3.456150e-02 -1.112387e-02 -2.042688e-03) (0.000000e+00 0.000000e+00 0.000000e+00)) ((-4.150351e+00 2.281660e+00 -2.085754e-02) (5.438532e-02 1.692956e-01 -5.993350e-04) (0.000000e+00 0.000000e+00 0.000000e+00))
0.00014      	((4.653328e-01 8.513011e-01 4.887713e-02) (3.443848e-02 -1.115649e-02 -2.050958e-03) (0.000000e+00 0.000000e+00 0.000000e+00)) ((-4.164577e+00 2.281124e+00 -2.078773e-02) (5.454561e-02 1.686944e-01 -5.971522e-04) (0.000000e+00 0.000000e+00 0.000000e+00))
0.000145     	((4.653598e-01 8.543611e-01 4.979022e-02) (3.431724e-02 -1.118350e-02 -2.057785e-03) (0.000000e+00 0.000000e+00 0.000000e+00)) ((-4.179531e+00 2.281245e+00 -2.072472e-02) (5.467845e-02 1.681020e-01 -5.948354e-04) (0.000000e+00 0.000000e+00 0.000000e+00))
0.00015      	((4.654451e-01 8.574475e-01 5.064869e-02) (3.419747e-02 -1.120566e-02 -2.063492e-03) (0.000000e+00 0.000000e+00 0.000000e+00)) ((-4.194620e+00 2.281653e+00 -2.066554e-02) (5.478753e-02 1.675168e-01 -5.923893e-04) (0.000000e+00 0.000000e+00 0.000000e+00))
0.000155     	((4.652397e-01 8.600543e-01 5.148847e-02) (3.407888e-02 -1.122378e-02 -2.068370e-03) (0.000000e+00 0.000000e+00 0.000000e+00)) ((-4.207387e+00 2.280654e+00 -2.060501e-02) (5.487680e-02 1.669375e-01 -5.898305e-04) (0.000000e+00 0.000000e+00 0.000000e+00))
0.00016      	((4.647888e-01 8.621870e-01 5.223682e-02) (3.396124e-02 -1.123857e-02 -2.072653e-03) (0.000000e+00 0.000000e+00 0.000000e+00)) ((-4.217851e+00 2.278460e+00 -2.053470e-02) (5.494973e-02 1.663629e-01 -5.871877e-04) (0.000000e+00 0.000000e+00 0.000000e+00))
0.000165     	((4.643579e-01 8.643296e-01 5.300386e-02) (3.384449e-02 -1.125052e-02 -2.076468e-03) (0.000000e+00 0.000000e+00 0.000000e+00)) ((-4.228381e+00 2.276374e+00 -2.047013e-02) (5.500872e-02 1.657927e-01 -5.844773e-04) (0.000000e+00 0.000000e+00 0.000000e+00))
0.00017      	((4.635073e-01 8.657344e-01 5.370123e-02) (3.372866e-02 -1.126004e-02 -2.079986e-03) (0.000000e+00 0.000000e+00 0.000000e+00)) ((-4.235299e+00 2.272231e+00 -2.040705e-02) (5.505579e-02 1.652271e-01 -5.817141e-04) (0.000000e+00 0.000000e+00 0.000000e+00))
0.000175     	((4.626049e-01 8.669387e-01 5.438588e-02) (3.361388e-02 -1.126759e-02 -2.083292e-03) (0.000000e+00 0.000000e+00 0.000000e+00)) ((-4.241236e+00 2.267834e+00 -2.036169e-02) (5.509311e-02 1.646665e-01 -5.789135e-04) (0.000000e+00 0.000000e+00 0.000000e+00))
0.00018      	((4.619235e-01 8.684273e-01 5.501139e-02) (3.350017e-02 -1.127349e-02 -2.086392e-03) (0.000000e+00 0.000000e+00 0.000000e+00)) ((-4.248568e+00 2.264518e+00 -2.030065e-02) (5.512237e-02 1.641113e-01 -5.760893e-04) (0.000000e+00 0.000000e+00 0.000000e+00))
0.000185     	((4.608498e-01 8.692590e-01 5.560196e-02) (3.338765e-02 -1.127804e-02 -2.089350e-03) (0.000000e+00 0.000000e+00 0.000000e+00)) ((-4.252682e+00 2.259279e+00 -2.026149e-02) (5.514492e-02 1.635618e-01 -5.732605e-04) (0.000000e+00 0.000000e+00 0.000000e+00))
0.00019      	((4.598435e-01 8.701135e-01 5.623704e-02) (3.327631e-02 -1.128141e-02 -2.092119e-03) (0.000000e+00 0.000000e+00 0.000000e+00)) ((-4.256917e+00 2.254374e+00 -2.022310e-02) (5.516169e-02 1.630182e-01 -5.704413e-04) (0.000000e+00 0.000000e+00 0.000000e+00))
0.000195     	((4.581921e-01 8.698561e-01 5.673361e-02) (3.316626e-02 -1.128376e-02 -2.094719e-03) (0.000000e+00 0.000000e+00 0.000000e+00)) ((-4.255675e+00 2.246286e+00 -2.021482e-02) (5.517342e-02 1.624808e-01 -5.676402e-04) (0.000000e+00 0.000000e+00 0.000000e+00))
0.0002       	((4.568787e-01 8.700540e-01 5.725083e-02) (3.305755e-02 -1.128519e-02 -2.097151e-03) (0.000000e+00 0.000000e+00 0.000000e+00)) ((-4.256676e+00 2.239861e+00 -2.020275e-02) (5.518065e-02 1.619500e-01 -5.648722e-04) (0.000000e+00 0.000000e+00 0.000000e+00))
0.000205     	((4.558913e-01 8.706368e-01 5.774103e-02) (3.295029e-02 -1.128577e-02 -2.099389e-03) (0.000000e+00 0.000000e+00 0.000000e+00)) ((-4.259587e+00 2.235051e+00 -2.016475e-02) (5.518368e-02 1.614261e-01 -5.621398e-04) (0.000000e+00 0.000000e+00 0.000000e+00))
0.00021      	((4.549429e-01 8.712250e-01 5.822339e-02) (3.284451e-02 -1.128554e-02 -2.101358e-03) (0.000000e+00 0.000000e+00 0.000000e+00)) ((-4.262480e+00 2.230399e+00 -2.015726e-02) (5.518276e-02 1.609095e-01 -5.594524e-04) (0.000000e+00 0.000000e+00 0.000000e+00))
0.000215     	((4.539431e-01 8.717101e-01 5.872843e-02) (3.274023e-02 -1.128463e-02 -2.102993e-03) (0.000000e+00 0.000000e+00 0.000000e+00)) ((-4.264862e+00 2.225492e+00 -2.016357e-02) (5.517851e-02 1.604002e-01 -5.568198e-04) (0.000000e+00 0.000000e+00 0.000000e+00))
0.00022      	((4.530844e-01 8.723231e-01 5.920254e-02) (3.263743e-02 -1.128309e-02 -2.104235e-03) (0.000000e+00 0.000000e+00 0.000000e+00)) ((-4.267905e+00 2.221297e+00 -2.014747e-02) (5.517120e-02 1.598980e-01 -5.542447e-04) (0.000000e+00 0.000000e+00 0.000000e+00))
0.000225     	((4.523794e-01 8.730323e-01 5.958611e-02) (3.253610e-02 -1.128099e-02 -2.105134e-03) (0.000000e+00 0.000000e+00 0.000000e+00)) ((-4.271419e+00 2.217855e+00 -2.011865e-02) (5.516116e-02 1.594030e-01 -5.517276e-04) (0.000000e+00 0.000000e+00 0.000000e+00))
0.00023      	((4.515188e-01 8.734666e-01 5.998120e-02) (3.243616e-02 -1.127832e-02 -2.105603e-03) (0.000000e+00 0.000000e+00 0.000000e+00)) ((-4.273564e+00 2.213631e+00 -2.011138e-02) (5.514832e-02 1.589148e-01 -5.492716e-04) (0.000000e+00 0.000000e+00 0.000000e+00))
0.000235     	((4.510289e-01 8.743709e-01 6.044016e-02) (3.233757e-02 -1.127507e-02 -2.105610e-03) (0.000000e+00 0.000000e+00 0.000000e+00)) ((-4.278054e+00 2.211258e+00 -2.007508e-02) (5.513270e-02 1.584330e-01 -5.468782e-04) (0.000000e+00 0.000000e+00 0.000000e+00))
0.00024      	((4.502479e-01 8.748212e-01 6.085246e-02) (3.224026e-02 -1.127125e-02 -2.105139e-03) (0.000000e+00 0.000000e+00 0.000000e+00)) ((-4.280278e+00 2.207429e+00 -2.007475e-02) (5.511424e-02 1.579575e-01 -5.445474e-04) (0.000000e+00 0.000000e+00 0.000000e+00))
0.000245     	((4.499133e-01 8.758784e-01 6.122544e-02) (3.214415e-02 -1.126681e-02 -2.104216e-03) (0.000000e+00 0.000000e+00 0.000000e+00)) ((-4.285496e+00 2.205803e+00 -2.004645e-02) (5.509285e-02 1.574879e-01 -5.422776e-04) (0.000000e+00 0.000000e+00 0.000000e+00))
0.00025      	((4.494189e-01 8.766901e-01 6.155996e-02) (3.204916e-02 -1.126180e-02 -2.102848e-03) (0.000000e+00 0.000000e+00 0.000000e+00)) ((-4.289488e+00 2.203373e+00 -2.003449e-02) (5.506864e-02 1.570236e-01 -5.400687e-04) (0.000000e+00 0.000000e+00 0.000000e+00))
0.000255     	((4.487653e-01 8.772004e-01 6.190902e-02) (3.195527e-02 -1.125621e-02 -2.101076e-03) (0.000000e+00 0.000000e+00 0.000000e+00)) ((-4.291979e+00 2.200147e+00 -2.004518e-02) (5.504161e-02 1.565647e-01 -5.379200e-04) (0.000000e+00 0.000000e+00 0.000000e+00))
0.00026      	((4.485618e-01 8.782760e-01 6.225076e-02) (3.186242e-02 -1.125000e-02 -2.098906e-03) (0.000000e+00 0.000000e+00 0.000000e+00)) ((-4.297275e+00 2.199154e+00 -2.001729e-02) (5.501161e-02 1.561108e-01 -5.358293e-04) (0.000000e+00 0.000000e+00 0.000000e+00))
0.000265     	((4.481011e-01 8.789876e-01 6.260922e-02) (3.177056e-02 -1.124318e-02 -2.096348e-03) (0.000000e+00 0.000000e+00 0.000000e+00)) ((-4.300781e+00 2.196894e+00 -2.000737e-02) (5.497860e-02 1.556618e-01 -5.337954e-04) (0.000000e+00 0.000000e+00 0.000000e+00))
0.00027      	((4.475746e-01 8.795746e-01 6.297894e-02) (3.167959e-02 -1.123577e-02 -2.093436e-03) (0.000000e+00 0.000000e+00 0.000000e+00)) ((-4.303692e+00 2.194322e+00 -1.998592e-02) (5.494275e-02 1.552170e-01 -5.318166e-04) (0.000000e+00 0.000000e+00 0.000000e+00))
0.000275     	((4.467071e-01 8.797411e-01 6.333084e-02) (3.158947e-02 -1.122781e-02 -2.090211e-03) (0.000000e+00 0.000000e+00 0.000000e+00)) ((-4.304519e+00 2.190060e+00 -1.999623e-02) (5.490423e-02 1.547764e-01 -5.298929e-04) (0.000000e+00 0.000000e+00 0.000000e+00))
0.00028      	((4.464272e-01 8.807017e-01 6.367409e-02) (3.150015e-02 -1.121930e-02 -2.086692e-03) (0.000000e+00 0.000000e+00 0.000000e+00)) ((-4.309227e+00 2.188676e+00 -1.999676e-02) (5.486303e-02 1.543397e-01 -5.280227e-04) (0.000000e+00 0.000000e+00 0.000000e+00))
0.000285     	((4.462926e-01 8.817943e-01 6.399032e-02) (3.141163e-02 -1.121024e-02 -2.082948e-03) (0.000000e+00 0.000000e+00 0.000000e+00)) ((-4.314610e+00 2.188021e+00 -1.996992e-02) (5.481916e-02 1.539068e-01 -5.262019e-04) (0.000000e+00 0.000000e+00 0.000000e+00))
0.00029      	((4.459746e-01 8.826046e-01 6.430890e-02) (3.132384e-02 -1.120065e-02 -2.078996e-03) (0.000000e+00 0.000000e+00 0.000000e+00)) ((-4.318605e+00 2.186465e+00 -1.994842e-02) (5.477270e-02 1.534775e-01 -5.244271e-04) (0.000000e+00 0.000000e+00 0.000000e+00))
0.000295     	((4.451376e-01 8.827318e-01 6.466140e-02) (3.123674e-02 -1.119059e-02 -2.074862e-03) (0.000000e+00 0.000000e+00 0.000000e+00)) ((-4.319227e+00 2.182345e+00 -1.996681e-02) (5.472395e-02 1.530516e-01 -5.226972e-04) (0.000000e+00 0.000000e+00 0.000000e+00))
0.0003       	((4.444858e-01 8.830918e-01 6.499587e-02) (3.115029e-02 -1.118011e-02 -2.070599e-03) (0.000000e+00 0.000000e+00 0.000000e+00)) ((-4.321002e+00 2.179143e+00 -1.997541e-02) (5.467317e-02 1.526288e-01 -5.210100e-04) (0.000000e+00 0.000000e+00 0.000000e+00))
0.000305     	((4.439758e-01 8.836875e-01 6.532661e-02) (3.106447e-02 -1.116925e-02 -2.066219e-03) (0.000000e+00 0.000000e+00 0.000000e+00)) ((-4.323934e+00 2.176639e+00 -1.997483e-02) (5.462051e-02 1.522091e-01 -5.193636e-04) (0.000000e+00 0.000000e+00 0.000000e+00))
0.00031      	((4.435335e-01 8.843282e-01 6.565393e-02) (3.097925e-02 -1.115797e-02 -2.061743e-03) (0.000000e+00 0.000000e+00 0.000000e+00)) ((-4.327104e+00 2.174478e+00 -1.995908e-02) (5.456585e-02 1.517923e-01 -5.177535e-04) (0.000000e+00 0.000000e+00 0.000000e+00))
0.000315     	((4.428799e-01 8.846576e-01 6.595921e-02) (3.089461e-02 -1.114633e-02 -2.057196e-03) (0.000000e+00 0.000000e+00 0.000000e+00)) ((-4.328752e+00 2.171283e+00 -1.994920e-02) (5.450938e-02 1.513784e-01 -5.161775e-04) (0.000000e+00 0.000000e+00 0.000000e+00))
0.00032      	((4.425194e-01 8.853670e-01 6.628611e-02) (3.081051e-02 -1.113432e-02 -2.052599e-03) (0.000000e+00 0.000000e+00 0.000000e+00)) ((-4.332249e+00 2.169520e+00 -1.994034e-02) (5.445115e-02 1.509671e-01 -5.146337e-04) (0.000000e+00 0.000000e+00 0.000000e+00))
0.000325     	((4.417100e-01 8.854923e-01 6.661525e-02) (3.072692e-02 -1.112202e-02 -2.047953e-03) (0.000000e+00 0.000000e+00 0.000000e+00)) ((-4.332856e+00 2.165535e+00 -1.996366e-02) (5.439147e-02 1.505582e-01 -5.131215e-04) (0.000000e+00 0.000000e+00 0.000000e+00))
0.00033      	((4.412002e-01 8.859938e-01 6.692907e-02) (3.064385e-02 -1.110940e-02 -2.043276e-03) (0.000000e+00 0.000000e+00 0.000000e+00)) ((-4.335339e+00 2.163040e+00 -1.995762e-02) (5.433020e-02 1.501519e-01 -5.116398e-04) (0.000000e+00 0.000000e+00 0.000000e+00))
0.000335     	((4.405217e-01 8.862457e-01 6.724462e-02) (3.056126e-02 -1.109646e-02 -2.038585e-03) (0.000000e+00 0.000000e+00 0.000000e+00)) ((-4.336572e+00 2.159699e+00 -1.997630e-02) (5.426743e-02 1.497480e-01 -5.101879e-04) (0.000000e+00 0.000000e+00 0.000000e+00))
0.00034      	((4.400510e-01 8.868031e-01 6.755672e-02) (3.047913e-02 -1.108323e-02 -2.033876e-03) (0.000000e+00 0.000000e+00 0.000000e+00)) ((-4.339312e+00 2.157386e+00 -1.998369e-02) (5.420320e-02 1.493463e-01 -5.087653e-04) (0.000000e+00 0.000000e+00 0.000000e+00))
0.000345     	((4.396380e-01 8.873751e-01 6.787671e-02) (3.039751e-02 -1.106975e-02 -2.029161e-03) (0.000000e+00 0.000000e+00 0.000000e+00)) ((-4.342135e+00 2.155367e+00 -1.998202e-02) (5.413774e-02 1.489470e-01 -5.073691e-04) (0.000000e+00 0.000000e+00 0.000000e+00))
0.00035      	((4.389645e-01 8.875942e-01 6.816831e-02) (3.031638e-02 -1.105604e-02 -2.024436e-03) (0.000000e+00 0.000000e+00 0.000000e+00)) ((-4.343195e+00 2.152050e+00 -2.000016e-02) (5.407115e-02 1.485502e-01 -5.060011e-04) (0.000000e+00 0.000000e+00 0.000000e+00))
0.000355     	((4.383961e-01 8.879387e-01 6.846400e-02) (3.023572e-02 -1.104213e-02 -2.019699e-03) (0.000000e+00 0.000000e+00 0.000000e+00)) ((-4.344896e+00 2.149263e+00 -2.000303e-02) (5.400359e-02 1.481557e-01 -5.046586e-04) (0.000000e+00 0.000000e+00 0.000000e+00))
0.00036      	((4.379687e-01 8.885042e-01 6.874829e-02) (3.015555e-02 -1.102803e-02 -2.014944e-03) (0.000000e+00 0.000000e+00 0.000000e+00)) ((-4.347679e+00 2.147168e+00 -2.000362e-02) (5.393509e-02 1.477635e-01 -5.033391e-04) (0.000000e+00 0.000000e+00 0.000000e+00))
0.000365     	((4.373782e-01 8.887827e-01 6.901320e-02) (3.007584e-02 -1.101378e-02 -2.010167e-03) (0.000000e+00 0.000000e+00 0.000000e+00)) ((-4.349053e+00 2.144270e+00 -2.001326e-02) (5.386587e-02 1.473736e-01 -5.020399e-04) (0.000000e+00 0.000000e+00 0.000000e+00))
0.00037      	((4.370126e-01 8.893207e-01 6.932198e-02) (2.999662e-02 -1.099940e-02 -2.005377e-03) (0.000000e+00 0.000000e+00 0.000000e+00)) ((-4.351708e+00 2.142486e+00 -2.000749e-02) (5.379597e-02 1.469861e-01 -5.007591e-04) (0.000000e+00 0.000000e+00 0.000000e+00))
0.000375     	((4.363729e-01 8.895149e-01 6.956573e-02) (2.991788e-02 -1.098490e-02 -2.000574e-03) (0.000000e+00 0.000000e+00 0.000000e+00)) ((-4.352663e+00 2.139342e+00 -2.001985e-02) (5.372552e-02 1.466009e-01 -4.994980e-04) (0.000000e+00 0.000000e+00 0.000000e+00))
0.00038      	((4.356360e-01 8.895898e-01 6.985031e-02) (2.983960e-02 -1.097030e-02 -1.995759e-03) (0.000000e+00 0.000000e+00 0.000000e+00)) ((-4.353023e+00 2.135717e+00 -2.004655e-02) (5.365457e-02 1.462180e-01 -4.982564e-04) (0.000000e+00 0.000000e+00 0.000000e+00))
0.000385     	((4.351172e-01 8.899618e-01 7.014587e-02) (2.976178e-02 -1.095561e-02 -1.990939e-03) (0.000000e+00 0.000000e+00 0.000000e+00)) ((-4.354844e+00 2.133165e+00 -2.006334e-02) (5.358311e-02 1.458373e-01 -4.970328e-04) (0.000000e+00 0.000000e+00 0.000000e+00))
0.00039      	((4.346849e-01 8.903957e-01 7.042557e-02) (2.968441e-02 -1.094081e-02 -1.986108e-03) (0.000000e+00 0.000000e+00 0.000000e+00)) ((-4.356984e+00 2.131051e+00 -2.006409e-02) (5.351116e-02 1.454588e-01 -4.958239e-04) (0.000000e+00 0.000000e+00 0.000000e+00))
0.000395     	((4.342393e-01 8.908375e-01 7.070789e-02) (2.960750e-02 -1.092591e-02 -1.981248e-03) (0.000000e+00 0.000000e+00 0.000000e+00)) ((-4.359143e+00 2.128856e+00 -2.007748e-02) (5.343872e-02 1.450825e-01 -4.946277e-04) (0.000000e+00 0.000000e+00 0.000000e+00))
0.0004       	((4.337728e-01 8.912483e-01 7.096247e-02) (2.953105e-02 -1.091093e-02 -1.976365e-03) (0.000000e+00 0.000000e+00 0.000000e+00)) ((-4.361149e+00 2.126558e+00 -2.009522e-02) (5.336585e-02 1.447085e-01 -4.934436e-04) (0.000000e+00 0.000000e+00 0.000000e+00))
0.000405     	((4.333571e-01 8.917135e-01 7.121142e-02) (2.945505e-02 -1.089586e-02 -1.971465e-03) (0.000000e+00 0.000000e+00 0.000000e+00)) ((-4.363432e+00 2.124517e+00 -2.010186e-02) (5.329255e-02 1.443367e-01 -4.922708e-04) (0.000000e+00 0.000000e+00 0.000000e+00))
0.00041      	((4.329403e-01 8.921243e-01 7.150617e-02) (2.937948e-02 -1.088074e-02 -1.966560e-03) (0.000000e+00 0.000000e+00 0.000000e+00)) ((-4.365442e+00 2.122470e+00 -2.012170e-02) (5.321896e-02 1.439670e-01 -4.911091e-04) (0.000000e+00 0.000000e+00 0.000000e+00))
0.000415     	((4.323810e-01 8.923599e-01 7.177251e-02) (2.930434e-02 -1.086557e-02 -1.961637e-03) (0.000000e+00 0.000000e+00 0.000000e+00)) ((-4.366587e+00 2.119719e+00 -2.014141e-02) (5.314516e-02 1.435993e-01 -4.899595e-04) (0.000000e+00 0.000000e+00 0.000000e+00))
0.00042      	((4.317415e-01 8.925091e-01 7.201196e-02) (2.922962e-02 -1.085036e-02 -1.956702e-03) (0.000000e+00 0.000000e+00 0.000000e+00)) ((-4.367299e+00 2.116564e+00 -2.017045e-02) (5.307113e-02 1.432337e-01 -4.888226e-04) (0.000000e+00 0.000000e+00 0.000000e+00))
0.000425     	((4.310505e-01 8.925334e-01 7.225706e-02) (2.915528e-02 -1.083510e-02 -1.951765e-03) (0.000000e+00 0.000000e+00 0.000000e+00)) ((-4.367419e+00 2.113170e+00 -2.018962e-02) (5.299687e-02 1.428700e-01 -4.876963e-04) (0.000000e+00 0.000000e+00 0.000000e+00))
0.00043      	((4.306362e-01 8.928775e-01 7.250630e-02) (2.908132e-02 -1.081979e-02 -1.946827e-03) (0.000000e+00 0.000000e+00 0.000000e+00)) ((-4.369106e+00 2.111136e+00 -2.019845e-02) (5.292236e-02 1.425082e-01 -4.865788e-04) (0.000000e+00 0.000000e+00 0.000000e+00))
0.000435     	((4.302764e-01 8.933275e-01 7.275397e-02) (2.900774e-02 -1.080446e-02 -1.941863e-03) (0.000000e+00 0.000000e+00 0.000000e+00)) ((-4.371308e+00 2.109367e+00 -2.020806e-02) (5.284771e-02 1.421482e-01 -4.854702e-04) (0.000000e+00 0.000000e+00 0.000000e+00))
0.00044      	((4.300564e-01 8.939687e-01 7.298980e-02) (2.893452e-02 -1.078909e-02 -1.936880e-03) (0.000000e+00 0.000000e+00 0.000000e+00)) ((-4.374439e+00 2.108279e+00 -2.021610e-02) (5.277288e-02 1.417899e-01 -4.843692e-04) (0.000000e+00 0.000000e+00 0.000000e+00))
0.000445     	((4.293405e-01 8.939051e-01 7.320508e-02) (2.886162e-02 -1.077371e-02 -1.931888e-03) (0.000000e+00 0.000000e+00 0.000000e+00)) ((-4.374150e+00 2.104778e+00 -2.022222e-02) (5.269802e-02 1.414332e-01 -4.832756e-04) (0.000000e+00 0.000000e+00 0.000000e+00))
0.00045      	((4.288440e-01 8.940821e-01 7.340728e-02) (2.878906e-02 -1.075833e-02 -1.926892e-03) (0.000000e+00 0.000000e+00 0.000000e+00)) ((-4.375034e+00 2.102349e+00 -2.021955e-02) (5.262312e-02 1.410782e-01 -4.821870e-04) (0.000000e+00 0.000000e+00 0.000000e+00))
0.000455     	((4.285815e-01 8.946302e-01 7.362143e-02) (2.871683e-02 -1.074294e-02 -1.921892e-03) (0.000000e+00 0.000000e+00 0.000000e+00)) ((-4.377714e+00 2.101054e+00 -2.022813e-02) (5.254813e-02 1.407248e-01 -4.811013e-04) (0.000000e+00 0.000000e+00 0.000000e+00))
0.00046      	((4.280658e-01 8.947868e-01 7.388569e-02) (2.864491e-02 -1.072753e-02 -1.916900e-03) (0.000000e+00 0.000000e+00 0.000000e+00)) ((-4.378490e+00 2.098532e+00 -2.023840e-02) (5.247310e-02 1.403728e-01 -4.800180e-04) (0.000000e+00 0.000000e+00 0.000000e+00))
0.000465     	((4.277721e-01 8.952061e-01 7.409463e-02) (2.857330e-02 -1.071210e-02 -1.911902e-03) (0.000000e+00 0.000000e+00 0.000000e+00)) ((-4.380555e+00 2.097096e+00 -2.023578e-02) (5.239790e-02 1.400225e-01 -4.789373e-04) (0.000000e+00 0.000000e+00 0.000000e+00))
0.00047      	((4.274570e-01 8.956166e-01 7.427237e-02) (2.850198e-02 -1.069666e-02 -1.906895e-03) (0.000000e+00 0.000000e+00 0.000000e+00)) ((-4.382564e+00 2.095546e+00 -2.023886e-02) (5.232266e-02 1.396735e-01 -4.778578e-04) (0.000000e+00 0.000000e+00 0.000000e+00))
0.000475     	((4.271738e-01 8.960832e-01 7.446450e-02) (2.843094e-02 -1.068120e-02 -1.901874e-03) (0.000000e+00 0.000000e+00 0.000000e+00)) ((-4.384861e+00 2.094159e+00 -2.023455e-02) (5.224734e-02 1.393259e-01 -4.767800e-04) (0.000000e+00 0.000000e+00 0.000000e+00))
0.00048      	((4.264071e-01 8.958077e-01 7.467825e-02) (2.836019e-02 -1.066574e-02 -1.896850e-03) (0.000000e+00 0.000000e+00 0.000000e+00)) ((-4.383504e+00 2.090393e+00 -2.025579e-02) (5.217199e-02 1.389797e-01 -4.757035e-04) (0.000000e+00 0.000000e+00 0.000000e+00))
0.000485     	((4.260654e-01 8.961257e-01 7.485694e-02) (2.828973e-02 -1.065028e-02 -1.891821e-03) (0.000000e+00 0.000000e+00 0.000000e+00)) ((-4.385061e+00 2.088714e+00 -2.026169e-02) (5.209663e-02 1.386350e-01 -4.746277e-04) (0.000000e+00 0.000000e+00 0.000000e+00))
0.00049      	((4.257386e-01 8.964850e-01 7.507402e-02) (2.821956e-02 -1.063482e-02 -1.886794e-03) (0.000000e+00 0.000000e+00 0.000000e+00)) ((-4.386816e+00 2.087106e+00 -2.027502e-02) (5.202126e-02 1.382916e-01 -4.735513e-04) (0.000000e+00 0.000000e+00 0.000000e+00))
0.000495     	((4.255306e-01 8.970230e-01 7.528336e-02) (2.814965e-02 -1.061932e-02 -1.881752e-03) (0.000000e+00 0.000000e+00 0.000000e+00)) ((-4.389469e+00 2.086096e+00 -2.026941e-02) (5.194570e-02 1.379496e-01 -4.724756e-04) (0.000000e+00 0.000000e+00 0.000000e+00))
0.0005       	((4.249798e-01 8.969687e-01 7.546008e-02) (2.808001e-02 -1.060381e-02 -1.876704e-03) (0.000000e+00 0.000000e+00 0.000000e+00)) ((-4.389223e+00 2.083405e+00 -2.026215e-02) (5.187010e-02 1.376089e-01 -4.713975e-04) (0.000000e+00 0.000000e+00 0.000000e+00))
0.000505     	((4.246530e-01 8.972486e-01 7.565125e-02) (2.801062e-02 -1.058829e-02 -1.871643e-03) (0.000000e+00 0.000000e+00 0.000000e+00)) ((-4.390609e+00 2.081811e+00 -2.025604e-02) (5.179441e-02 1.372694e-01 -4.703168e-04) (0.000000e+00 0.000000e+00 0.000000e+00))
0.00051      	((4.244308e-01 8.977265e-01 7.584476e-02) (2.794147e-02 -1.057275e-02 -1.866554e-03) (0.000000e+00 0.000000e+00 0.000000e+00)) ((-4.392939e+00 2.080713e+00 -2.026706e-02) (5.171860e-02 1.369311e-01 -4.692339e-04) (0.000000e+00 0.000000e+00 0.000000e+00))
0.000515     	((4.240661e-01 8.979516e-01 7.603597e-02) (2.787257e-02 -1.055720e-02 -1.861439e-03) (0.000000e+00 0.000000e+00 0.000000e+00)) ((-4.394026e+00 2.078912e+00 -2.028562e-02) (5.164275e-02 1.365940e-01 -4.681483e-04) (0.000000e+00 0.000000e+00 0.000000e+00))
0.00052      	((4.235934e-01 8.980065e-01 7.623005e-02) (2.780391e-02 -1.054164e-02 -1.856306e-03) (0.000000e+00 0.000000e+00 0.000000e+00)) ((-4.394289e+00 2.076590e+00 -2.030156e-02) (5.156686e-02 1.362581e-01 -4.670600e-04) (0.000000e+00 0.000000e+00 0.000000e+00))
0.000525     	((4.232873e-01 8.982467e-01 7.639470e-02) (2.773551e-02 -1.052607e-02 -1.851167e-03) (0.000000e+00 0.000000e+00 0.000000e+00)) ((-4.395489e+00 2.075103e+00 -2.029095e-02) (5.149094e-02 1.359235e-01 -4.659679e-04) (0.000000e+00 0.000000e+00 0.000000e+00))
0.00053      	((4.229195e-01 8.984447e-01 7.657574e-02) (2.766736e-02 -1.051050e-02 -1.846017e-03) (0.000000e+00 0.000000e+00 0.000000e+00)) ((-4.396457e+00 2.073295e+00 -2.030130e-02) (5.141497e-02 1.355901e-01 -4.648726e-04) (0.000000e+00 0.000000e+00 0.000000e+00))
0.000535     	((4.223465e-01 8.982738e-01 7.674668e-02) (2.759946e-02 -1.049493e-02 -1.840870e-03) (0.000000e+00 0.000000e+00 0.000000e+00)) ((-4.395626e+00 2.070489e+00 -2.031182e-02) (5.133899e-02 1.352579e-01 -4.637748e-04) (0.000000e+00 0.000000e+00 0.000000e+00))
0.00054      	((4.220109e-01 8.984715e-01 7.691010e-02) (2.753180e-02 -1.047935e-02 -1.835725e-03) (0.000000e+00 0.000000e+00 0.000000e+00)) ((-4.396600e+00 2.068845e+00 -2.031835e-02) (5.126297e-02 1.349270e-01 -4.626750e-04) (0.000000e+00 0.000000e+00 0.000000e+00))
0.000545     	((4.216721e-01 8.986693e-01 7.708768e-02) (2.746441e-02 -1.046376e-02 -1.830585e-03) (0.000000e+00 0.000000e+00 0.000000e+00)) ((-4.397567e+00 2.067183e+00 -2.033015e-02) (5.118690e-02 1.345973e-01 -4.615733e-04) (0.000000e+00 0.000000e+00 0.000000e+00))
0.00055      	((4.212710e-01 8.987661e-01 7.726504e-02) (2.739727e-02 -1.044818e-02 -1.825454e-03) (0.000000e+00 0.000000e+00 0.000000e+00)) ((-4.398042e+00 2.065216e+00 -2.034088e-02) (5.111086e-02 1.342688e-01 -4.604680e-04) (0.000000e+00 0.000000e+00 0.000000e+00))