# Moment         
# CofR           : (0.0000000000e+00 0.0000000000e+00 0.0000000000e+00)
#                
# Time           	(total_x total_y total_z)	(pressure_x pressure_y pressure_z)	(viscous_x viscous_y viscous_z)
0.428            	(1.7815090426e-02 -8.0746953098e-03 -9.3490674455e-03)	(1.7578871299e-02 -8.4832302657e-03 -8.2190498321e-03)	(2.3621912769e-04 4.0853495595e-04 -1.1300176134e-03)
0.429            	(1.8350006798e-02 -8.0390863644e-03 -9.3263404380e-03)	(1.8111978654e-02 -8.4487852219e-03 -8.1947628007e-03)	(2.3802814394e-04 4.0969885751e-04 -1.1315776373e-03)
0.43             	(1.8825849693e-02 -8.0027875008e-03 -9.2887659080e-03)	(1.8586026298e-02 -8.4136432583e-03 -8.1556387243e-03)	(2.3982339500e-04 4.1085575752e-04 -1.1331271837e-03)
0.431            	(1.9149143423e-02 -7.9581548899e-03 -9.2840815024e-03)	(1.8907550426e-02 -8.3701932438e-03 -8.1493270838e-03)	(2.4159299708e-04 4.1203835399e-04 -1.1347544186e-03)
0.432            	(1.9441038145e-02 -7.9258377546e-03 -9.2108592331e-03)	(1.9197701226e-02 -8.3389937921e-03 -8.0746339433e-03)	(2.4333691931e-04 4.1315603748e-04 -1.1362252898e-03)
0.433            	(2.0052331919e-02 -7.8821855228e-03 -9.2401335817e-03)	(1.9807239676e-02 -8.2965311348e-03 -8.1022469570e-03)	(2.4509224297e-04 4.1434561203e-04 -1.1378866247e-03)
0.434            	(2.0460192646e-02 -7.8978163100e-03 -9.0723778367e-03)	(2.0213333866e-02 -8.3131746209e-03 -7.9332562753e-03)	(2.4685878011e-04 4.1535831091e-04 -1.1391215614e-03)
0.435            	(2.0940784063e-02 -7.8456753131e-03 -9.0832098939e-03)	(2.0692174505e-02 -8.2621096602e-03 -7.9426940914e-03)	(2.4860955789e-04 4.1643434704e-04 -1.1405158026e-03)
0.436            	(2.1416299751e-02 -7.8152476811e-03 -9.0460724150e-03)	(2.1165943273e-02 -8.2327502134e-03 -7.9041714408e-03)	(2.5035647834e-04 4.1750253232e-04 -1.1419009742e-03)
0.437            	(2.1302602253e-02 -7.7738955101e-03 -8.9143221440e-03)	(2.1050579383e-02 -8.1923510819e-03 -7.7713264649e-03)	(2.5202286977e-04 4.1845557181e-04 -1.1429956791e-03)
0.438            	(2.1785993191e-02 -7.7355238870e-03 -8.8917245466e-03)	(2.1532303568e-02 -8.1549480140e-03 -7.7475832038e-03)	(2.5368962333e-04 4.1942412707e-04 -1.1441413428e-03)
0.439            	(2.2577226757e-02 -7.7079695505e-03 -8.8784598272e-03)	(2.2321825777e-02 -8.1283953134e-03 -7.7330823755e-03)	(2.5540098015e-04 4.2042576292e-04 -1.1453774516e-03)
0.44             	(2.3107825088e-02 -7.6644996935e-03 -8.8333273030e-03)	(2.2850717292e-02 -8.0859228537e-03 -7.6867295513e-03)	(2.5710779583e-04 4.2142316018e-04 -1.1465977517e-03)
0.441            	(2.3575845770e-02 -7.6260467868e-03 -8.8197624879e-03)	(2.3317041764e-02 -8.0484908242e-03 -7.6718815633e-03)	(2.5880400587e-04 4.2244403738e-04 -1.1478809247e-03)
0.442            	(2.3145273005e-02 -7.5229864055e-03 -8.8916423859e-03)	(2.2884887958e-02 -7.9465486152e-03 -7.7422332139e-03)	(2.6038504668e-04 4.2356220968e-04 -1.1494091720e-03)
0.443            	(2.4530144801e-02 -7.5706366761e-03 -8.6932707796e-03)	(2.4268083417e-02 -7.9951337726e-03 -7.5427945754e-03)	(2.6206138359e-04 4.2449709650e-04 -1.1504762042e-03)
0.444            	(2.5296495567e-02 -7.5269912000e-03 -8.7160285808e-03)	(2.5032724772e-02 -7.9525081687e-03 -7.5642665883e-03)	(2.6377079498e-04 4.2551696868e-04 -1.1517619925e-03)
0.445            	(2.5659247030e-02 -7.4860785609e-03 -8.6589273376e-03)	(2.5393798789e-02 -7.9125876498e-03 -7.5059513990e-03)	(2.6544824098e-04 4.2650908881e-04 -1.1529759386e-03)
0.446            	(2.6038458528e-02 -7.4444407575e-03 -8.6389961995e-03)	(2.5771373541e-02 -7.8719507885e-03 -7.4847767644e-03)	(2.6708498631e-04 4.2751003099e-04 -1.1542194351e-03)
0.447            	(2.6507565235e-02 -7.4067127959e-03 -8.6011100590e-03)	(2.6238862566e-02 -7.8352156350e-03 -7.4456650967e-03)	(2.6870266844e-04 4.2850283906e-04 -1.1554449623e-03)
0.448            	(2.5403286011e-02 -7.3727831623e-03 -8.7474581237e-03)	(2.5133104324e-02 -7.8023633370e-03 -7.5904779484e-03)	(2.7018168747e-04 4.2958017468e-04 -1.1569801753e-03)
0.449            	(2.7480803617e-02 -7.3480364963e-03 -8.4538597859e-03)	(2.7209042802e-02 -7.7784979480e-03 -7.2959322678e-03)	(2.7176081426e-04 4.3046145173e-04 -1.1579275181e-03)
0.45             	(2.7987765827e-02 -7.3107892559e-03 -8.4442025537e-03)	(2.7714421718e-02 -7.7421662694e-03 -7.2852343788e-03)	(2.7334410891e-04 4.3137701347e-04 -1.1589681749e-03)
0.451            	(2.8438090870e-02 -7.2715187915e-03 -8.4254002236e-03)	(2.8163181017e-02 -7.7038283153e-03 -7.2653437880e-03)	(2.7490985356e-04 4.3230952378e-04 -1.1600564356e-03)
0.452            	(2.8909769427e-02 -7.2416589406e-03 -8.3754689163e-03)	(2.8633314453e-02 -7.6748769354e-03 -7.2143790052e-03)	(2.7645497387e-04 4.3321799481e-04 -1.1610899111e-03)
0.453            	(2.9407443449e-02 -7.2060930604e-03 -8.3432783720e-03)	(2.9129462295e-02 -7.6402178833e-03 -7.1811558071e-03)	(2.7798115355e-04 4.3412482290e-04 -1.1621225649e-03)
0.454            	(2.9869538174e-02 -7.1680848567e-03 -8.3086915691e-03)	(2.9590054356e-02 -7.6031138423e-03 -7.1455383037e-03)	(2.7948381842e-04 4.3502898556e-04 -1.1631532654e-03)
0.455            	(3.0428721260e-02 -7.1386135872e-03 -8.2629712734e-03)	(3.0147741310e-02 -7.5745298627e-03 -7.0988244468e-03)	(2.8097994974e-04 4.3591627550e-04 -1.1641468266e-03)
0.456            	(3.0835872103e-02 -7.1029419243e-03 -8.2144820035e-03)	(3.0553413114e-02 -7.5397279718e-03 -7.0493785456e-03)	(2.8245898883e-04 4.3678604754e-04 -1.1651034579e-03)
0.457            	(3.1324860805e-02 -7.0675768726e-03 -8.1671677519e-03)	(3.1040942217e-02 -7.5052219110e-03 -7.0011315875e-03)	(2.8391858814e-04 4.3764503839e-04 -1.1660361645e-03)
0.458            	(3.1732058616e-02 -7.0323238309e-03 -8.1215595711e-03)	(3.1446700935e-02 -7.4708164468e-03 -6.9546165238e-03)	(2.8535768048e-04 4.3849261592e-04 -1.1669430474e-03)
0.459            	(3.2317211971e-02 -7.0029954753e-03 -8.0909891436e-03)	(3.2030417237e-02 -7.4423392350e-03 -6.9231328613e-03)	(2.8679473379e-04 4.3934375970e-04 -1.1678562823e-03)
0.46             	(3.2694208243e-02 -6.9667520224e-03 -8.0429853776e-03)	(3.2406012017e-02 -7.4069313446e-03 -6.8742568570e-03)	(2.8819622563e-04 4.4017932213e-04 -1.1687285206e-03)
0.461            	(3.2722009220e-02 -6.8912226578e-03 -8.0731922259e-03)	(3.2432475416e-02 -7.3323088009e-03 -6.9034195930e-03)	(2.8953380437e-04 4.4108614313e-04 -1.1697726329e-03)
0.462            	(3.3663530364e-02 -6.9166861511e-03 -7.9289816704e-03)	(3.3372618624e-02 -7.3585493616e-03 -6.7584816977e-03)	(2.9091173947e-04 4.4186321056e-04 -1.1704999727e-03)
0.463            	(3.4112154820e-02 -6.8786440838e-03 -7.8866316666e-03)	(3.3819887722e-02 -7.3212805317e-03 -6.7154154093e-03)	(2.9226709834e-04 4.4263644798e-04 -1.1712162573e-03)
0.464            	(3.4555985167e-02 -6.8474770184e-03 -7.8458212589e-03)	(3.4262400289e-02 -7.2908822898e-03 -6.6738957351e-03)	(2.9358487779e-04 4.4340527141e-04 -1.1719255238e-03)
0.465            	(3.4990744405e-02 -6.8148703688e-03 -7.8143621452e-03)	(3.4695872255e-02 -7.2590513178e-03 -6.6417017429e-03)	(2.9487215083e-04 4.4418094898e-04 -1.1726604024e-03)
0.466            	(3.5479217035e-02 -6.7782301358e-03 -7.7496420451e-03)	(3.5183089843e-02 -7.2231675268e-03 -6.5763033139e-03)	(2.9612719164e-04 4.4493739099e-04 -1.1733387312e-03)
0.467            	(3.5878629306e-02 -6.7444421758e-03 -7.7125953741e-03)	(3.5581286942e-02 -7.1901353258e-03 -6.5385726070e-03)	(2.9734236432e-04 4.4569315004e-04 -1.1740227670e-03)
0.468            	(3.6374843314e-02 -6.7145807228e-03 -7.6703262186e-03)	(3.6076313400e-02 -7.1610235145e-03 -6.4956282651e-03)	(2.9852991336e-04 4.4644279173e-04 -1.1746979534e-03)
0.469            	(3.6805402564e-02 -6.6819961306e-03 -7.6236966517e-03)	(3.6505716343e-02 -7.1291788072e-03 -6.4483426823e-03)	(2.9968622086e-04 4.4718267659e-04 -1.1753539694e-03)
0.47             	(3.7252879949e-02 -6.6510228234e-03 -7.5709844664e-03)	(3.6952074529e-02 -7.0989309814e-03 -6.3950074211e-03)	(3.0080542020e-04 4.4790815798e-04 -1.1759770453e-03)
0.471            	(3.7760758155e-02 -6.6181960080e-03 -7.5198591305e-03)	(3.7458862062e-02 -7.0668240710e-03 -6.3432708600e-03)	(3.0189609215e-04 4.4862806299e-04 -1.1765882706e-03)
0.472            	(3.8123450363e-02 -6.5556468519e-03 -7.4877492426e-03)	(3.7820495635e-02 -7.0050307092e-03 -6.3104654542e-03)	(3.0295472817e-04 4.4938385731e-04 -1.1772837884e-03)
0.473            	(3.8678050399e-02 -6.5529423975e-03 -7.3934114851e-03)	(3.8374081566e-02 -7.0030046837e-03 -6.2156167609e-03)	(3.0396883363e-04 4.5006228615e-04 -1.1777947242e-03)
0.474            	(3.9134019827e-02 -6.5233971565e-03 -7.3253895485e-03)	(3.8829077193e-02 -6.9741109705e-03 -6.1471486957e-03)	(3.0494263380e-04 4.5071381400e-04 -1.1782408528e-03)
0.475            	(3.9543855052e-02 -6.4888996206e-03 -7.3385508562e-03)	(3.9237960488e-02 -6.9403284366e-03 -6.1596896190e-03)	(3.0589456348e-04 4.5142881607e-04 -1.1788612373e-03)
0.476            	(3.9992342731e-02 -6.4631317368e-03 -7.2780936728e-03)	(3.9685550407e-02 -6.9152541906e-03 -6.0986617257e-03)	(3.0679232383e-04 4.5212245380e-04 -1.1794319472e-03)
0.477            	(4.0114893779e-02 -6.4108271881e-03 -7.2906137283e-03)	(3.9807249112e-02 -6.8637064881e-03 -6.1104466638e-03)	(3.0764466635e-04 4.5287930000e-04 -1.1801670645e-03)
0.478            	(4.0813787018e-02 -6.4033090017e-03 -7.1653450366e-03)	(4.0505327231e-02 -6.8568440969e-03 -5.9847060743e-03)	(3.0845978715e-04 4.5353509519e-04 -1.1806389623e-03)
0.479            	(4.1288333449e-02 -6.3717341548e-03 -7.1143729187e-03)	(4.0979096770e-02 -6.8259224336e-03 -5.9332727534e-03)	(3.0923667865e-04 4.5418827886e-04 -1.1811001653e-03)
0.48             	(4.1752624952e-02 -6.3388800233e-03 -7.0630538074e-03)	(4.1442657274e-02 -6.7937194567e-03 -5.8815015627e-03)	(3.0996767823e-04 4.5483943338e-04 -1.1815522446e-03)
0.481            	(4.2203297138e-02 -6.3077975017e-03 -7.0118645126e-03)	(4.1892641281e-02 -6.7632852171e-03 -5.8298710561e-03)	(3.1065585702e-04 4.5548771544e-04 -1.1819934565e-03)
0.482            	(4.2569313995e-02 -6.2748047289e-03 -6.9699117673e-03)	(4.2258025988e-02 -6.7309486271e-03 -5.7874606368e-03)	(3.1128800645e-04 4.5614389812e-04 -1.1824511305e-03)
0.483            	(4.3104208105e-02 -6.2473764317e-03 -6.9100338147e-03)	(4.2792326721e-02 -6.7041638541e-03 -5.7271637750e-03)	(3.1188138359e-04 4.5678742240e-04 -1.1828700397e-03)
0.484            	(4.3670727005e-02 -6.2245487185e-03 -6.8474920165e-03)	(4.3358301296e-02 -6.6819646520e-03 -5.6642464731e-03)	(3.1242570932e-04 4.5741593350e-04 -1.1832455435e-03)
0.485            	(4.4119903858e-02 -6.1897419983e-03 -6.7991218880e-03)	(4.3807005470e-02 -6.6477951394e-03 -5.6154915250e-03)	(3.1289838774e-04 4.5805314106e-04 -1.1836303630e-03)
0.486            	(4.4549637997e-02 -6.1587124149e-03 -6.7411235171e-03)	(4.4236347855e-02 -6.6173963456e-03 -5.5571334009e-03)	(3.1329014217e-04 4.5868393074e-04 -1.1839901163e-03)
0.487            	(4.5022658266e-02 -6.1181757802e-03 -6.7236812870e-03)	(4.4709062286e-02 -6.5775349554e-03 -5.5392308179e-03)	(3.1359598090e-04 4.5935917514e-04 -1.1844504691e-03)
0.488            	(4.5499150422e-02 -6.1088939469e-03 -6.6132879350e-03)	(4.5185321834e-02 -6.5688521179e-03 -5.4285727552e-03)	(3.1382858741e-04 4.5995817097e-04 -1.1847151797e-03)
0.489            	(4.5893903140e-02 -6.0709137849e-03 -6.5797865056e-03)	(4.5579953566e-02 -6.5314971605e-03 -5.3947544104e-03)	(3.1394957480e-04 4.6058337562e-04 -1.1850320952e-03)
0.49             	(4.6358385446e-02 -6.0405081506e-03 -6.5259179705e-03)	(4.6044427333e-02 -6.5017203104e-03 -5.3405764645e-03)	(3.1395811313e-04 4.6121215987e-04 -1.1853415059e-03)
0.491            	(4.6868922558e-02 -6.0097390644e-03 -6.4651890947e-03)	(4.6555084289e-02 -6.4715815273e-03 -5.2795587274e-03)	(3.1383826906e-04 4.6184246296e-04 -1.1856303672e-03)
0.492            	(4.7304215411e-02 -5.9778726326e-03 -6.4090033534e-03)	(4.6990652845e-02 -6.4403542466e-03 -5.2230952707e-03)	(3.1356256592e-04 4.6248161396e-04 -1.1859080826e-03)
0.493            	(4.7785447837e-02 -5.9502903271e-03 -6.3522512324e-03)	(4.7472341671e-02 -6.4134183936e-03 -5.1660855735e-03)	(3.1310616556e-04 4.6312806655e-04 -1.1861656589e-03)
0.494            	(4.8259045083e-02 -5.9238107981e-03 -6.2963179157e-03)	(4.7946605838e-02 -6.3875957786e-03 -5.1099197850e-03)	(3.1243924524e-04 4.6378498046e-04 -1.1863981307e-03)
0.495            	(4.8715093301e-02 -5.8936980460e-03 -6.2392310305e-03)	(4.8403558613e-02 -6.3581556671e-03 -5.0526285798e-03)	(3.1153468862e-04 4.6445762109e-04 -1.1866024507e-03)
0.496            	(4.9338445800e-02 -5.8651941880e-03 -6.1533007397e-03)	(4.9028068685e-02 -6.3303236104e-03 -4.9666000889e-03)	(3.1037711519e-04 4.6512942245e-04 -1.1867006508e-03)
0.497            	(4.9614117984e-02 -5.8368947986e-03 -6.1228207494e-03)	(4.9305250710e-02 -6.3027463271e-03 -4.9359862152e-03)	(3.0886727315e-04 4.6585152853e-04 -1.1868345343e-03)
0.498            	(5.0077038048e-02 -5.8059634119e-03 -6.0654333675e-03)	(4.9770061599e-02 -6.2725752969e-03 -4.8785104397e-03)	(3.0697644922e-04 4.6661188493e-04 -1.1869229278e-03)
0.499            	(5.0539182596e-02 -5.7786484142e-03 -6.0088381515e-03)	(5.0234516577e-02 -6.2460679009e-03 -4.8218930869e-03)	(3.0466601912e-04 4.6741948679e-04 -1.1869450646e-03)
0.5              	(5.0971441002e-02 -5.7487277693e-03 -5.9522583301e-03)	(5.0669503227e-02 -6.2170130368e-03 -4.7653781605e-03)	(3.0193777485e-04 4.6828526745e-04 -1.1868801697e-03)
0.501            	(5.1400483044e-02 -5.7173250818e-03 -5.8924230874e-03)	(5.1101130471e-02 -6.1864803453e-03 -4.7056467268e-03)	(2.9935257258e-04 4.6915526346e-04 -1.1867763605e-03)
0.502            	(5.1820893114e-02 -5.6827091657e-03 -5.8271604238e-03)	(5.1523249816e-02 -6.1526331011e-03 -4.6404185796e-03)	(2.9764329765e-04 4.6992393536e-04 -1.1867418442e-03)
0.503            	(5.2248482861e-02 -5.6519006721e-03 -5.7615508096e-03)	(5.1951105171e-02 -6.1224222280e-03 -4.5747236288e-03)	(2.9737769057e-04 4.7052155591e-04 -1.1868271808e-03)
0.504            	(5.2693670658e-02 -5.6171442229e-03 -5.6951176017e-03)	(5.2395112044e-02 -6.0880992331e-03 -4.5080837876e-03)	(2.9855861410e-04 4.7095501021e-04 -1.1870338141e-03)
0.505            	(5.3152867934e-02 -5.5895158718e-03 -5.6337308257e-03)	(5.2852058207e-02 -6.0608043628e-03 -4.4464310803e-03)	(3.0080972748e-04 4.7128849093e-04 -1.1872997454e-03)
0.506            	(5.3631074886e-02 -5.5619895825e-03 -5.5725609040e-03)	(5.3327317036e-02 -6.0335555175e-03 -4.3849847733e-03)	(3.0375784946e-04 4.7156593502e-04 -1.1875761307e-03)
0.507            	(5.4055521439e-02 -5.5349693859e-03 -5.5134293527e-03)	(5.3748447286e-02 -6.0067853186e-03 -4.3256064931e-03)	(3.0707415268e-04 4.7181593261e-04 -1.1878228596e-03)
0.508            	(5.4445988135e-02 -5.5031326769e-03 -5.4446534775e-03)	(5.4135405796e-02 -5.9751835810e-03 -4.2566318970e-03)	(3.1058233842e-04 4.7205090409e-04 -1.1880215806e-03)
0.509            	(5.4935315094e-02 -5.4756846903e-03 -5.3911875662e-03)	(5.4621113995e-02 -5.9479769211e-03 -4.2029586748e-03)	(3.1420109971e-04 4.7229223080e-04 -1.1882288914e-03)
0.51             	(5.5401435159e-02 -5.4493933635e-03 -5.3299013424e-03)	(5.5083566974e-02 -5.9219228673e-03 -4.1414825334e-03)	(3.1786818448e-04 4.7252950381e-04 -1.1884188090e-03)
0.511            	(5.5889484508e-02 -5.4244566153e-03 -5.2689681451e-03)	(5.5567933888e-02 -5.8972181818e-03 -4.0803776040e-03)	(3.2155062029e-04 4.7276156649e-04 -1.1885905411e-03)
0.512            	(5.6344256630e-02 -5.3965312705e-03 -5.2011858377e-03)	(5.6019032658e-02 -5.8695153872e-03 -4.0124541221e-03)	(3.2522397273e-04 4.7298411676e-04 -1.1887317156e-03)
0.513            	(5.6747133451e-02 -5.3671196479e-03 -5.1408268183e-03)	(5.6418270824e-02 -5.8403215027e-03 -3.9519748859e-03)	(3.2886262774e-04 4.7320185483e-04 -1.1888519324e-03)
0.514            	(5.7215902414e-02 -5.3403916714e-03 -5.0702061034e-03)	(5.6883437716e-02 -5.8138002985e-03 -3.8812696675e-03)	(3.3246469805e-04 4.7340862705e-04 -1.1889364359e-03)
0.515            	(5.7675283658e-02 -5.3121471566e-03 -5.0012159713e-03)	(5.7339258070e-02 -5.7857534144e-03 -3.8122278563e-03)	(3.3602558812e-04 4.7360625773e-04 -1.1889881150e-03)
0.516            	(5.8085532861e-02 -5.2807782998e-03 -4.9436577388e-03)	(5.7746005989e-02 -5.7545847666e-03 -3.7546231519e-03)	(3.3952687151e-04 4.7380646685e-04 -1.1890345869e-03)
0.517            	(5.8505828106e-02 -5.2520545450e-03 -4.8825539391e-03)	(5.8162860155e-02 -5.7260591643e-03 -3.6934910945e-03)	(3.4296795163e-04 4.7400461922e-04 -1.1890628446e-03)
0.518            	(5.8947645247e-02 -5.2260805550e-03 -4.8101822285e-03)	(5.8601279715e-02 -5.7002682199e-03 -3.6211396567e-03)	(3.4636553169e-04 4.7418766496e-04 -1.1890425719e-03)
0.519            	(5.9308032965e-02 -5.1935401761e-03 -4.7491018604e-03)	(5.8958322295e-02 -5.6679105428e-03 -3.5600888925e-03)	(3.4971066950e-04 4.7437036671e-04 -1.1890129679e-03)
0.52             	(5.9832681461e-02 -5.1711392499e-03 -4.6792660788e-03)	(5.9479662396e-02 -5.6456789862e-03 -3.4903226122e-03)	(3.5301906481e-04 4.7453973623e-04 -1.1889434666e-03)
0.521            	(6.0369605669e-02 -5.1474687597e-03 -4.6050468671e-03)	(6.0013318747e-02 -5.6221571606e-03 -3.4162325649e-03)	(3.5628692286e-04 4.7468840088e-04 -1.1888143022e-03)
0.522            	(6.0800827958e-02 -5.1177842825e-03 -4.5367784868e-03)	(6.0441333594e-02 -5.5926202128e-03 -3.3481045941e-03)	(3.5949436410e-04 4.7483593023e-04 -1.1886738927e-03)
0.523            	(6.1280264918e-02 -5.0906343590e-03 -4.4690224400e-03)	(6.0917611049e-02 -5.5656137507e-03 -3.2805093612e-03)	(3.6265386884e-04 4.7497939173e-04 -1.1885130788e-03)
0.524            	(6.1589897076e-02 -5.0615396094e-03 -4.3744132679e-03)	(6.1224146240e-02 -5.5366299560e-03 -3.1861533714e-03)	(3.6575083560e-04 4.7509034662e-04 -1.1882598965e-03)
0.525            	(6.2278782871e-02 -5.0381421875e-03 -4.3392544879e-03)	(6.1909951240e-02 -5.5133776021e-03 -3.1511723087e-03)	(3.6883163012e-04 4.7523541463e-04 -1.1880821792e-03)
0.526            	(6.2696383732e-02 -5.0023106843e-03 -4.2817756883e-03)	(6.2324523018e-02 -5.4777029073e-03 -3.0938560627e-03)	(3.7186071403e-04 4.7539222306e-04 -1.1879196256e-03)
0.527            	(6.3112865907e-02 -4.9749120181e-03 -4.2089001332e-03)	(6.2738024477e-02 -5.4504522608e-03 -3.0211721077e-03)	(3.7484143029e-04 4.7554024275e-04 -1.1877280255e-03)
0.528            	(6.3565211142e-02 -4.9481686064e-03 -4.1381641016e-03)	(6.3187436591e-02 -5.4238513389e-03 -2.9506488650e-03)	(3.7777455117e-04 4.7568273242e-04 -1.1875152366e-03)
0.529            	(6.3449839586e-02 -4.9143620919e-03 -3.9075345472e-03)	(6.3069251332e-02 -5.3900076688e-03 -2.7207020555e-03)	(3.8058825484e-04 4.7564557690e-04 -1.1868324917e-03)
0.53             	(6.4736170205e-02 -4.8896019714e-03 -4.0319799383e-03)	(6.4352693645e-02 -5.3654331612e-03 -2.8452665164e-03)	(3.8347656003e-04 4.7583118984e-04 -1.1867134219e-03)
0.531            	(6.5037666444e-02 -4.8630233005e-03 -3.9355753899e-03)	(6.4651361470e-02 -5.3390050361e-03 -2.7490773881e-03)	(3.8630497396e-04 4.7598173564e-04 -1.1864980018e-03)
0.532            	(6.5439493469e-02 -4.8378482635e-03 -3.8568861642e-03)	(6.5050401040e-02 -5.3139623227e-03 -2.6706552221e-03)	(3.8909242947e-04 4.7611405915e-04 -1.1862309421e-03)
0.533            	(6.5849677561e-02 -4.8073741748e-03 -3.7935400721e-03)	(6.5457830239e-02 -5.2836265512e-03 -2.6075675941e-03)	(3.9184732265e-04 4.7625237646e-04 -1.1859724780e-03)
0.534            	(6.6280885704e-02 -4.7823529079e-03 -3.7120518924e-03)	(6.5886317807e-02 -5.2587266126e-03 -2.5263860478e-03)	(3.9456789784e-04 4.7637370470e-04 -1.1856658445e-03)
0.535            	(6.6774496229e-02 -4.7565759516e-03 -3.6336389936e-03)	(6.6377231772e-02 -5.2330593442e-03 -2.4483134261e-03)	(3.9726445638e-04 4.7648339264e-04 -1.1853255675e-03)
0.536            	(6.7077676269e-02 -4.7275178914e-03 -3.5222103654e-03)	(6.6677759214e-02 -5.2040610217e-03 -2.3373565482e-03)	(3.9991705453e-04 4.7654313033e-04 -1.1848538171e-03)
0.537            	(6.7798360722e-02 -4.7041857143e-03 -3.4953238437e-03)	(6.7395780866e-02 -5.1808340726e-03 -2.3108260520e-03)	(4.0257985587e-04 4.7664835834e-04 -1.1844977917e-03)
0.538            	(6.8040954990e-02 -4.6718534293e-03 -3.4187685951e-03)	(6.7635761145e-02 -5.1485926532e-03 -2.2346623395e-03)	(4.0519384475e-04 4.7673922396e-04 -1.1841062556e-03)
0.539            	(6.8544987209e-02 -4.6561897013e-03 -3.2962599255e-03)	(6.8137193631e-02 -5.1329587993e-03 -2.1127021633e-03)	(4.0779357751e-04 4.7676909806e-04 -1.1835577622e-03)
0.54             	(6.8786329394e-02 -4.6171181041e-03 -3.2642801699e-03)	(6.8375973772e-02 -5.0939506584e-03 -2.0811835585e-03)	(4.1035562174e-04 4.7683255430e-04 -1.1830966114e-03)
0.541            	(6.9530676199e-02 -4.6005138397e-03 -3.1707133076e-03)	(6.9117750580e-02 -5.0773854198e-03 -1.9881464404e-03)	(4.1292561930e-04 4.7687158013e-04 -1.1825668672e-03)
0.542            	(6.9925123600e-02 -4.5738631618e-03 -3.0920887466e-03)	(6.9509654844e-02 -5.0507574583e-03 -1.9100899987e-03)	(4.1546875564e-04 4.7689429650e-04 -1.1819987479e-03)
0.543            	(7.0374524870e-02 -4.5483541530e-03 -3.0109402013e-03)	(6.9956530117e-02 -5.0252557512e-03 -1.8295457625e-03)	(4.1799475214e-04 4.7690159824e-04 -1.1813944388e-03)
0.544            	(7.0831118525e-02 -4.5184421771e-03 -2.9332236043e-03)	(7.0410626208e-02 -4.9953440583e-03 -1.7524518311e-03)	(4.2049231738e-04 4.7690188119e-04 -1.1807717732e-03)
0.545            	(7.1309768312e-02 -4.4984550297e-03 -2.8508867175e-03)	(7.0886801798e-02 -4.9753366601e-03 -1.6707828175e-03)	(4.2296651433e-04 4.7688163046e-04 -1.1801039001e-03)
0.546            	(7.1711605406e-02 -4.4740710780e-03 -2.7624062812e-03)	(7.1286192778e-02 -4.9509102934e-03 -1.5830224642e-03)	(4.2541262837e-04 4.7683921541e-04 -1.1793838170e-03)
0.547            	(7.2254160954e-02 -4.4447818332e-03 -2.7045590229e-03)	(7.1826309062e-02 -4.9215970397e-03 -1.5258475529e-03)	(4.2785189229e-04 4.7681520641e-04 -1.1787114701e-03)
0.548            	(7.2568749642e-02 -4.4122585818e-03 -2.6311887638e-03)	(7.2138491865e-02 -4.8890516044e-03 -1.4531393785e-03)	(4.3025777710e-04 4.7679302259e-04 -1.1780493852e-03)
0.549            	(7.3115376980e-02 -4.3948959689e-03 -2.5356616678e-03)	(7.2682722942e-02 -4.8716395814e-03 -1.3583406252e-03)	(4.3265403770e-04 4.7674361252e-04 -1.1773210426e-03)
0.55             	(7.3602336269e-02 -4.3713799676e-03 -2.4487816523e-03)	(7.3167302149e-02 -4.8480596912e-03 -1.2722198211e-03)	(4.3503411988e-04 4.7667972360e-04 -1.1765618312e-03)
0.551            	(7.4039956894e-02 -4.3467770113e-03 -2.3571789532e-03)	(7.3602569641e-02 -4.8233756404e-03 -1.1814140898e-03)	(4.3738725257e-04 4.7659862912e-04 -1.1757648635e-03)
0.552            	(7.4654401907e-02 -4.3284580761e-03 -2.3087075298e-03)	(7.4214663882e-02 -4.8050036334e-03 -1.1336589680e-03)	(4.3973802486e-04 4.7654555727e-04 -1.1750485618e-03)
0.553            	(7.4937213929e-02 -4.3109861715e-03 -2.0398254083e-03)	(7.4495189824e-02 -4.7872700696e-03 -8.6604423869e-04)	(4.4202410495e-04 4.7628389804e-04 -1.1737811696e-03)
0.554            	(7.6012390443e-02 -4.2781738712e-03 -2.1452217524e-03)	(7.5568005597e-02 -4.7544196656e-03 -9.7212298456e-04)	(4.4438484537e-04 4.7624579436e-04 -1.1730987679e-03)
0.555            	(7.6218871097e-02 -4.2535719427e-03 -2.0347669821e-03)	(7.5772175636e-02 -4.7297339221e-03 -8.6245638328e-04)	(4.4669546155e-04 4.7616197942e-04 -1.1723105988e-03)
0.556            	(7.6522915301e-02 -4.2271306506e-03 -1.9119129175e-03)	(7.6073949493e-02 -4.7031571716e-03 -7.4052179422e-04)	(4.4896580735e-04 4.7602652105e-04 -1.1713911233e-03)
0.557            	(7.7216975082e-02 -4.2028872892e-03 -1.8817016639e-03)	(7.6765724548e-02 -4.6788308688e-03 -7.1108717107e-04)	(4.5125053391e-04 4.7594357965e-04 -1.1706144928e-03)
0.558            	(7.7483710775e-02 -4.1685844230e-03 -1.7785951668e-03)	(7.7030226719e-02 -4.6444242897e-03 -6.0880444111e-04)	(4.5348405610e-04 4.7583986672e-04 -1.1697907257e-03)
0.559            	(7.6510287514e-02 -4.1651420089e-03 -1.4000508216e-03)	(7.6054774732e-02 -4.6404841188e-03 -2.3206293837e-04)	(4.5551278278e-04 4.7534210992e-04 -1.1679878832e-03)
0.56             	(7.9509516589e-02 -4.1220933588e-03 -1.7850135071e-03)	(7.9051633401e-02 -4.5975461534e-03 -6.1728632130e-04)	(4.5788318884e-04 4.7545279462e-04 -1.1677271858e-03)
0.561            	(7.9471980925e-02 -4.1093806757e-03 -1.5353283914e-03)	(7.9011830625e-02 -4.5847391972e-03 -3.6839255036e-04)	(4.6015029987e-04 4.7535852150e-04 -1.1669358411e-03)
0.562            	(7.9687177247e-02 -4.0893765568e-03 -1.4471895464e-03)	(7.9224820854e-02 -4.5646143051e-03 -2.8109865574e-04)	(4.6235639310e-04 4.7523774826e-04 -1.1660908906e-03)
0.563            	(8.0088324083e-02 -4.0622950255e-03 -1.3624599421e-03)	(7.9623791056e-02 -4.5374031964e-03 -1.9722614234e-04)	(4.6453302699e-04 4.7510817084e-04 -1.1652337998e-03)
0.564            	(7.9510389774e-02 -4.0593863593e-03 -1.0300952859e-03)	(7.9043833127e-02 -4.5340637468e-03 1.3353399416e-04)	(4.6655664750e-04 4.7467738751e-04 -1.1636292800e-03)
0.565            	(8.3059497924e-02 -4.0251245121e-03 -1.5995522201e-03)	(8.2590526909e-02 -4.5001217143e-03 -4.3560167957e-04)	(4.6897101557e-04 4.7499720218e-04 -1.1639505406e-03)
0.566            	(8.1972446862e-02 -3.9917469727e-03 -1.2059479847e-03)	(8.1501328482e-02 -4.4667045623e-03 -4.2601924533e-05)	(4.7111837996e-04 4.7495758963e-04 -1.1633460601e-03)
0.567            	(8.2875331612e-02 -3.9892793352e-03 -1.1787734602e-03)	(8.2402039704e-02 -4.4642337475e-03 -1.5922589336e-05)	(4.7329190847e-04 4.7495441229e-04 -1.1628508709e-03)
0.568            	(8.2880675075e-02 -3.9518607600e-03 -1.0369347550e-03)	(8.2405297590e-02 -4.4267357728e-03 1.2523281981e-04)	(4.7537748493e-04 4.7487501277e-04 -1.1621675748e-03)
0.569            	(8.3291684290e-02 -3.9377509314e-03 -9.2492001377e-04)	(8.2814254762e-02 -4.4124927860e-03 2.3644110277e-04)	(4.7742952783e-04 4.7474185459e-04 -1.1613611165e-03)
0.57             	(8.3574769843e-02 -3.9174424622e-03 -7.9221775730e-04)	(8.3095324756e-02 -4.3919866793e-03 3.6818438014e-04)	(4.7944508729e-04 4.7454421710e-04 -1.1604021374e-03)
0.571            	(8.4389069574e-02 -3.9068206048e-03 -7.5598441624e-04)	(8.3907569396e-02 -4.3812012372e-03 4.0355892335e-04)	(4.8150017846e-04 4.7438063230e-04 -1.1595433396e-03)
0.572            	(8.4586420361e-02 -3.8949451028e-03 -6.2425803122e-04)	(8.4102912896e-02 -4.3690794025e-03 5.3424160439e-04)	(4.8350746570e-04 4.7413429971e-04 -1.1584996356e-03)
0.573            	(8.4894944117e-02 -3.8840725018e-03 -4.8960689898e-04)	(8.4409484157e-02 -4.3578889265e-03 6.6769064356e-04)	(4.8545996027e-04 4.7381642473e-04 -1.1572975425e-03)
0.574            	(8.5864055051e-02 -3.8562494343e-03 -4.8748931377e-04)	(8.5376587718e-02 -4.3298481762e-03 6.6886563474e-04)	(4.8746733374e-04 4.7359874193e-04 -1.1563549485e-03)
0.575            	(8.5969894152e-02 -3.8402413788e-03 -3.8779740031e-04)	(8.5480473666e-02 -4.3135784987e-03 7.6752564678e-04)	(4.8942048542e-04 4.7333711990e-04 -1.1553230471e-03)
0.576            	(8.5670308697e-02 -3.8143296053e-03 -6.8226833986e-05)	(8.5179074691e-02 -4.2871386842e-03 1.0853726031e-03)	(4.9123400595e-04 4.7280907890e-04 -1.1535994371e-03)
0.577            	(8.7511118434e-02 -3.8032054097e-03 -2.9317528365e-04)	(8.7017891583e-02 -4.2758348375e-03 8.5963013366e-04)	(4.9322685055e-04 4.7262942774e-04 -1.1528054173e-03)
0.578            	(8.7561136242e-02 -3.7845769622e-03 -1.1597938532e-04)	(8.7066011114e-02 -4.2569016045e-03 1.0357241031e-03)	(4.9512512775e-04 4.7232464223e-04 -1.1517034884e-03)
0.579            	(8.8099533780e-02 -3.7730183442e-03 -2.9610826052e-05)	(8.7602532901e-02 -4.2450201787e-03 1.1209587726e-03)	(4.9700087919e-04 4.7200183457e-04 -1.1505695987e-03)
0.58             	(8.8479297880e-02 -3.7572179536e-03 6.7014737838e-05)	(8.7980453338e-02 -4.2288666569e-03 1.2163893358e-03)	(4.9884454206e-04 4.7164870330e-04 -1.1493745980e-03)
0.581            	(8.8989164886e-02 -3.7488006400e-03 1.6592296217e-04)	(8.8488495793e-02 -4.2200660585e-03 1.3140392490e-03)	(5.0066909266e-04 4.7126541851e-04 -1.1481162868e-03)
0.582            	(8.9298757530e-02 -3.7124653296e-03 2.1779425610e-04)	(8.8796309843e-02 -4.1833831201e-03 1.3647586066e-03)	(5.0244768724e-04 4.7091779052e-04 -1.1469643505e-03)
0.583            	(8.8719610455e-02 -3.7145984274e-03 6.9031290216e-04)	(8.8215556107e-02 -4.1847024905e-03 1.8348973302e-03)	(5.0405434750e-04 4.7010406302e-04 -1.1445844281e-03)
0.584            	(9.0836593699e-02 -3.6896875594e-03 3.0215356866e-04)	(9.0330706680e-02 -4.1595236004e-03 1.4458219684e-03)	(5.0588701926e-04 4.6983604102e-04 -1.1436683997e-03)
0.585            	(9.0461333091e-02 -3.6964403318e-03 6.2084972611e-04)	(8.9953785579e-02 -4.1657027504e-03 1.7628258673e-03)	(5.0754751256e-04 4.6926241860e-04 -1.1419761411e-03)
0.586            	(9.2295452670e-02 -3.6692681030e-03 3.9552947239e-04)	(9.1786077192e-02 -4.1383185146e-03 1.5367571749e-03)	(5.0937547759e-04 4.6905041160e-04 -1.1412277025e-03)
0.587            	(9.1552417175e-02 -3.6816142156e-03 8.1295845591e-04)	(9.1041426123e-02 -4.1500358038e-03 1.9523671628e-03)	(5.1099105195e-04 4.6842158820e-04 -1.1394087069e-03)
0.588            	(9.3072676417e-02 -3.6380526324e-03 5.9076614962e-04)	(9.2559952998e-02 -4.1062101851e-03 1.7293101591e-03)	(5.1272341943e-04 4.6815755276e-04 -1.1385440095e-03)
0.589            	(9.2944795355e-02 -3.6203725344e-03 7.7595696120e-04)	(9.2430457504e-02 -4.0881286856e-03 1.9132864724e-03)	(5.1433785064e-04 4.6775615121e-04 -1.1373295112e-03)
0.59             	(9.3228807712e-02 -3.6121413295e-03 9.3738513995e-04)	(9.2712915234e-02 -4.0793892787e-03 2.0732309388e-03)	(5.1589247860e-04 4.6724794915e-04 -1.1358457989e-03)