# Forces     
# CofR       : (0.000000e+00 0.000000e+00 0.000000e+00)
# Time       forces(pressure viscous porous) moment(pressure viscous porous)
0.003005     	((3.566127e-01 9.104788e-01 1.047005e-01) (1.216231e-02 -4.716999e-03 -4.024820e-04) (0.000000e+00 0.000000e+00 0.000000e+00)) ((-4.455233e+00 1.747010e+00 -2.501053e-02) (2.309428e-02 5.972822e-02 -2.314740e-04) (0.000000e+00 0.000000e+00 0.000000e+00))
0.00301      	((3.565839e-01 9.105496e-01 1.047217e-01) (1.214786e-02 -4.709295e-03 -4.003305e-04) (0.000000e+00 0.000000e+00 0.000000e+00)) ((-4.455580e+00 1.746866e+00 -2.501592e-02) (2.305660e-02 5.965747e-02 -2.312867e-04) (0.000000e+00 0.000000e+00 0.000000e+00))
0.003015     	((3.564909e-01 9.104966e-01 1.047584e-01) (1.213344e-02 -4.701607e-03 -3.981817e-04) (0.000000e+00 0.000000e+00 0.000000e+00)) ((-4.455320e+00 1.746409e+00 -2.502206e-02) (2.301899e-02 5.958689e-02 -2.310999e-04) (0.000000e+00 0.000000e+00 0.000000e+00))
0.00302      	((3.564737e-01 9.105781e-01 1.047886e-01) (1.211905e-02 -4.693934e-03 -3.960348e-04) (0.000000e+00 0.000000e+00 0.000000e+00)) ((-4.455720e+00 1.746324e+00 -2.502702e-02) (2.298145e-02 5.951644e-02 -2.309134e-04) (0.000000e+00 0.000000e+00 0.000000e+00))
0.003025     	((3.564733e-01 9.106823e-01 1.048170e-01) (1.210470e-02 -4.686272e-03 -3.938894e-04) (0.000000e+00 0.000000e+00 0.000000e+00)) ((-4.456231e+00 1.746321e+00 -2.503197e-02) (2.294397e-02 5.944614e-02 -2.307273e-04) (0.000000e+00 0.000000e+00 0.000000e+00))
0.00303      	((3.564470e-01 9.107435e-01 1.048493e-01) (1.209037e-02 -4.678621e-03 -3.917446e-04) (0.000000e+00 0.000000e+00 0.000000e+00)) ((-4.456528e+00 1.746189e+00 -2.503908e-02) (2.290654e-02 5.937600e-02 -2.305417e-04) (0.000000e+00 0.000000e+00 0.000000e+00))
0.003035     	((3.564651e-01 9.108872e-01 1.048808e-01) (1.207607e-02 -4.670982e-03 -3.896010e-04) (0.000000e+00 0.000000e+00 0.000000e+00)) ((-4.457231e+00 1.746275e+00 -2.504566e-02) (2.286917e-02 5.930601e-02 -2.303565e-04) (0.000000e+00 0.000000e+00 0.000000e+00))
0.00304      	((3.564549e-01 9.109799e-01 1.049098e-01) (1.206181e-02 -4.663356e-03 -3.874583e-04) (0.000000e+00 0.000000e+00 0.000000e+00)) ((-4.457684e+00 1.746223e+00 -2.505283e-02) (2.283186e-02 5.923617e-02 -2.301717e-04) (0.000000e+00 0.000000e+00 0.000000e+00))
0.003045     	((3.564378e-01 9.110607e-01 1.049371e-01) (1.204757e-02 -4.655744e-03 -3.853173e-04) (0.000000e+00 0.000000e+00 0.000000e+00)) ((-4.458079e+00 1.746137e+00 -2.505864e-02) (2.279462e-02 5.916647e-02 -2.299871e-04) (0.000000e+00 0.000000e+00 0.000000e+00))
0.00305      	((3.564064e-01 9.111050e-01 1.049635e-01) (1.203337e-02 -4.648144e-03 -3.831778e-04) (0.000000e+00 0.000000e+00 0.000000e+00)) ((-4.458300e+00 1.745983e+00 -2.506129e-02) (2.275745e-02 5.909692e-02 -2.298030e-04) (0.000000e+00 0.000000e+00 0.000000e+00))
0.003055     	((3.564000e-01 9.112046e-01 1.049964e-01) (1.201920e-02 -4.640558e-03 -3.810404e-04) (0.000000e+00 0.000000e+00 0.000000e+00)) ((-4.458787e+00 1.745950e+00 -2.506809e-02) (2.272033e-02 5.902752e-02 -2.296192e-04) (0.000000e+00 0.000000e+00 0.000000e+00))
0.00306      	((3.563955e-01 9.113068e-01 1.050268e-01) (1.200505e-02 -4.632986e-03 -3.789053e-04) (0.000000e+00 0.000000e+00 0.000000e+00)) ((-4.459288e+00 1.745927e+00 -2.507276e-02) (2.268329e-02 5.895828e-02 -2.294358e-04) (0.000000e+00 0.000000e+00 0.000000e+00))
0.003065     	((3.563657e-01 9.113671e-01 1.050568e-01) (1.199094e-02 -4.625429e-03 -3.767723e-04) (0.000000e+00 0.000000e+00 0.000000e+00)) ((-4.459583e+00 1.745779e+00 -2.507853e-02) (2.264632e-02 5.888918e-02 -2.292526e-04) (0.000000e+00 0.000000e+00 0.000000e+00))
0.00307      	((3.563955e-01 9.115264e-01 1.050890e-01) (1.197686e-02 -4.617882e-03 -3.746412e-04) (0.000000e+00 0.000000e+00 0.000000e+00)) ((-4.460359e+00 1.745922e+00 -2.508649e-02) (2.260939e-02 5.882024e-02 -2.290701e-04) (0.000000e+00 0.000000e+00 0.000000e+00))
0.003075     	((3.564049e-01 9.116458e-01 1.051193e-01) (1.196281e-02 -4.610345e-03 -3.725124e-04) (0.000000e+00 0.000000e+00 0.000000e+00)) ((-4.460946e+00 1.745968e+00 -2.509146e-02) (2.257252e-02 5.875144e-02 -2.288879e-04) (0.000000e+00 0.000000e+00 0.000000e+00))
0.00308      	((3.563989e-01 9.117322e-01 1.051449e-01) (1.194879e-02 -4.602822e-03 -3.703860e-04) (0.000000e+00 0.000000e+00 0.000000e+00)) ((-4.461373e+00 1.745939e+00 -2.509399e-02) (2.253572e-02 5.868279e-02 -2.287061e-04) (0.000000e+00 0.000000e+00 0.000000e+00))
0.003085     	((3.563302e-01 9.117441e-01 1.051786e-01) (1.193480e-02 -4.595316e-03 -3.682616e-04) (0.000000e+00 0.000000e+00 0.000000e+00)) ((-4.461423e+00 1.745596e+00 -2.510568e-02) (2.249900e-02 5.861429e-02 -2.285245e-04) (0.000000e+00 0.000000e+00 0.000000e+00))
0.00309      	((3.563098e-01 9.118044e-01 1.052066e-01) (1.192084e-02 -4.587827e-03 -3.661404e-04) (0.000000e+00 0.000000e+00 0.000000e+00)) ((-4.461721e+00 1.745495e+00 -2.510985e-02) (2.246236e-02 5.854596e-02 -2.283431e-04) (0.000000e+00 0.000000e+00 0.000000e+00))
0.003095     	((3.562588e-01 9.118354e-01 1.052351e-01) (1.190691e-02 -4.580352e-03 -3.640208e-04) (0.000000e+00 0.000000e+00 0.000000e+00)) ((-4.461872e+00 1.745243e+00 -2.511618e-02) (2.242579e-02 5.847776e-02 -2.281621e-04) (0.000000e+00 0.000000e+00 0.000000e+00))
0.0031       	((3.562666e-01 9.119667e-01 1.052625e-01) (1.189302e-02 -4.572894e-03 -3.619037e-04) (0.000000e+00 0.000000e+00 0.000000e+00)) ((-4.462513e+00 1.745279e+00 -2.512400e-02) (2.238930e-02 5.840972e-02 -2.279813e-04) (0.000000e+00 0.000000e+00 0.000000e+00))
0.003105     	((3.562412e-01 9.120250e-01 1.052962e-01) (1.187915e-02 -4.565449e-03 -3.597889e-04) (0.000000e+00 0.000000e+00 0.000000e+00)) ((-4.462796e+00 1.745151e+00 -2.513124e-02) (2.235288e-02 5.834182e-02 -2.278008e-04) (0.000000e+00 0.000000e+00 0.000000e+00))
0.00311      	((3.562568e-01 9.121508e-01 1.053275e-01) (1.186531e-02 -4.558018e-03 -3.576764e-04) (0.000000e+00 0.000000e+00 0.000000e+00)) ((-4.463413e+00 1.745228e+00 -2.513477e-02) (2.231652e-02 5.827407e-02 -2.276207e-04) (0.000000e+00 0.000000e+00 0.000000e+00))
0.003115     	((3.562455e-01 9.122321e-01 1.053643e-01) (1.185151e-02 -4.550602e-03 -3.555646e-04) (0.000000e+00 0.000000e+00 0.000000e+00)) ((-4.463813e+00 1.745172e+00 -2.513861e-02) (2.228024e-02 5.820647e-02 -2.274407e-04) (0.000000e+00 0.000000e+00 0.000000e+00))
0.00312      	((3.562391e-01 9.123234e-01 1.053929e-01) (1.183773e-02 -4.543204e-03 -3.534557e-04) (0.000000e+00 0.000000e+00 0.000000e+00)) ((-4.464262e+00 1.745140e+00 -2.514226e-02) (2.224404e-02 5.813901e-02 -2.272608e-04) (0.000000e+00 0.000000e+00 0.000000e+00))
0.003125     	((3.561740e-01 9.123444e-01 1.054214e-01) (1.182398e-02 -4.535823e-03 -3.513485e-04) (0.000000e+00 0.000000e+00 0.000000e+00)) ((-4.464359e+00 1.744816e+00 -2.515411e-02) (2.220792e-02 5.807170e-02 -2.270812e-04) (0.000000e+00 0.000000e+00 0.000000e+00))
0.00313      	((3.562285e-01 9.125327e-01 1.054454e-01) (1.181027e-02 -4.528457e-03 -3.492452e-04) (0.000000e+00 0.000000e+00 0.000000e+00)) ((-4.465285e+00 1.745084e+00 -2.515659e-02) (2.217189e-02 5.800454e-02 -2.269017e-04) (0.000000e+00 0.000000e+00 0.000000e+00))
0.003135     	((3.562221e-01 9.126405e-01 1.054778e-01) (1.179658e-02 -4.521104e-03 -3.471441e-04) (0.000000e+00 0.000000e+00 0.000000e+00)) ((-4.465810e+00 1.745049e+00 -2.516566e-02) (2.213591e-02 5.793752e-02 -2.267225e-04) (0.000000e+00 0.000000e+00 0.000000e+00))
0.00314      	((3.561968e-01 9.126941e-01 1.055077e-01) (1.178292e-02 -4.513765e-03 -3.450464e-04) (0.000000e+00 0.000000e+00 0.000000e+00)) ((-4.466073e+00 1.744924e+00 -2.516974e-02) (2.210000e-02 5.787064e-02 -2.265436e-04) (0.000000e+00 0.000000e+00 0.000000e+00))
0.003145     	((3.561562e-01 9.127266e-01 1.055348e-01) (1.176929e-02 -4.506443e-03 -3.429513e-04) (0.000000e+00 0.000000e+00 0.000000e+00)) ((-4.466230e+00 1.744722e+00 -2.517589e-02) (2.206417e-02 5.780389e-02 -2.263647e-04) (0.000000e+00 0.000000e+00 0.000000e+00))
0.00315      	((3.561524e-01 9.128237e-01 1.055630e-01) (1.175569e-02 -4.499135e-03 -3.408584e-04) (0.000000e+00 0.000000e+00 0.000000e+00)) ((-4.466707e+00 1.744703e+00 -2.518063e-02) (2.202842e-02 5.773728e-02 -2.261861e-04) (0.000000e+00 0.000000e+00 0.000000e+00))
0.003155     	((3.561218e-01 9.128754e-01 1.055950e-01) (1.174211e-02 -4.491840e-03 -3.387676e-04) (0.000000e+00 0.000000e+00 0.000000e+00)) ((-4.466959e+00 1.744550e+00 -2.518698e-02) (2.199272e-02 5.767082e-02 -2.260078e-04) (0.000000e+00 0.000000e+00 0.000000e+00))
0.00316      	((3.561112e-01 9.129669e-01 1.056256e-01) (1.172857e-02 -4.484560e-03 -3.366803e-04) (0.000000e+00 0.000000e+00 0.000000e+00)) ((-4.467404e+00 1.744494e+00 -2.519461e-02) (2.195710e-02 5.760450e-02 -2.258299e-04) (0.000000e+00 0.000000e+00 0.000000e+00))
0.003165     	((3.560953e-01 9.130494e-01 1.056546e-01) (1.171506e-02 -4.477297e-03 -3.345952e-04) (0.000000e+00 0.000000e+00 0.000000e+00)) ((-4.467807e+00 1.744414e+00 -2.520120e-02) (2.192157e-02 5.753833e-02 -2.256520e-04) (0.000000e+00 0.000000e+00 0.000000e+00))
0.00317      	((3.560525e-01 9.130861e-01 1.056879e-01) (1.170157e-02 -4.470051e-03 -3.325129e-04) (0.000000e+00 0.000000e+00 0.000000e+00)) ((-4.467985e+00 1.744203e+00 -2.520815e-02) (2.188611e-02 5.747230e-02 -2.254744e-04) (0.000000e+00 0.000000e+00 0.000000e+00))
0.003175     	((3.560981e-01 9.132629e-01 1.057168e-01) (1.168812e-02 -4.462821e-03 -3.304341e-04) (0.000000e+00 0.000000e+00 0.000000e+00)) ((-4.468852e+00 1.744426e+00 -2.521288e-02) (2.185074e-02 5.740642e-02 -2.252968e-04) (0.000000e+00 0.000000e+00 0.000000e+00))
0.00318      	((3.561090e-01 9.133844e-01 1.057458e-01) (1.167469e-02 -4.455606e-03 -3.283565e-04) (0.000000e+00 0.000000e+00 0.000000e+00)) ((-4.469447e+00 1.744477e+00 -2.521887e-02) (2.181543e-02 5.734068e-02 -2.251194e-04) (0.000000e+00 0.000000e+00 0.000000e+00))
0.003185     	((3.560831e-01 9.134486e-01 1.057730e-01) (1.166129e-02 -4.448405e-03 -3.262800e-04) (0.000000e+00 0.000000e+00 0.000000e+00)) ((-4.469761e+00 1.744348e+00 -2.522507e-02) (2.178019e-02 5.727507e-02 -2.249423e-04) (0.000000e+00 0.000000e+00 0.000000e+00))
0.00319      	((3.560437e-01 9.134901e-01 1.058039e-01) (1.164793e-02 -4.441218e-03 -3.242037e-04) (0.000000e+00 0.000000e+00 0.000000e+00)) ((-4.469963e+00 1.744153e+00 -2.523145e-02) (2.174503e-02 5.720961e-02 -2.247655e-04) (0.000000e+00 0.000000e+00 0.000000e+00))
0.003195     	((3.560361e-01 9.135811e-01 1.058341e-01) (1.163458e-02 -4.434048e-03 -3.221293e-04) (0.000000e+00 0.000000e+00 0.000000e+00)) ((-4.470407e+00 1.744113e+00 -2.523807e-02) (2.170995e-02 5.714428e-02 -2.245887e-04) (0.000000e+00 0.000000e+00 0.000000e+00))
0.0032       	((3.560636e-01 9.137211e-01 1.058660e-01) (1.162127e-02 -4.426895e-03 -3.200587e-04) (0.000000e+00 0.000000e+00 0.000000e+00)) ((-4.471091e+00 1.744246e+00 -2.524414e-02) (2.167494e-02 5.707910e-02 -2.244121e-04) (0.000000e+00 0.000000e+00 0.000000e+00))
0.003205     	((3.560356e-01 9.137766e-01 1.058955e-01) (1.160799e-02 -4.419757e-03 -3.179903e-04) (0.000000e+00 0.000000e+00 0.000000e+00)) ((-4.471362e+00 1.744107e+00 -2.525003e-02) (2.164002e-02 5.701406e-02 -2.242356e-04) (0.000000e+00 0.000000e+00 0.000000e+00))
0.00321      	((3.560582e-01 9.139098e-01 1.059203e-01) (1.159474e-02 -4.412634e-03 -3.159235e-04) (0.000000e+00 0.000000e+00 0.000000e+00)) ((-4.472017e+00 1.744217e+00 -2.525407e-02) (2.160516e-02 5.694917e-02 -2.240594e-04) (0.000000e+00 0.000000e+00 0.000000e+00))
0.003215     	((3.560232e-01 9.139535e-01 1.059495e-01) (1.158151e-02 -4.405522e-03 -3.138585e-04) (0.000000e+00 0.000000e+00 0.000000e+00)) ((-4.472233e+00 1.744046e+00 -2.525711e-02) (2.157036e-02 5.688440e-02 -2.238835e-04) (0.000000e+00 0.000000e+00 0.000000e+00))
0.00322      	((3.560065e-01 9.140227e-01 1.059797e-01) (1.156832e-02 -4.398425e-03 -3.117959e-04) (0.000000e+00 0.000000e+00 0.000000e+00)) ((-4.472572e+00 1.743963e+00 -2.526282e-02) (2.153563e-02 5.681978e-02 -2.237079e-04) (0.000000e+00 0.000000e+00 0.000000e+00))
0.003225     	((3.560213e-01 9.141475e-01 1.060109e-01) (1.155515e-02 -4.391341e-03 -3.097351e-04) (0.000000e+00 0.000000e+00 0.000000e+00)) ((-4.473181e+00 1.744033e+00 -2.526927e-02) (2.150096e-02 5.675531e-02 -2.235327e-04) (0.000000e+00 0.000000e+00 0.000000e+00))
0.00323      	((3.560329e-01 9.142629e-01 1.060396e-01) (1.154201e-02 -4.384272e-03 -3.076756e-04) (0.000000e+00 0.000000e+00 0.000000e+00)) ((-4.473745e+00 1.744088e+00 -2.527567e-02) (2.146637e-02 5.669097e-02 -2.233576e-04) (0.000000e+00 0.000000e+00 0.000000e+00))
0.003235     	((3.560450e-01 9.143831e-01 1.060640e-01) (1.152890e-02 -4.377213e-03 -3.056174e-04) (0.000000e+00 0.000000e+00 0.000000e+00)) ((-4.474336e+00 1.744146e+00 -2.527931e-02) (2.143183e-02 5.662677e-02 -2.231829e-04) (0.000000e+00 0.000000e+00 0.000000e+00))
0.00324      	((3.560338e-01 9.144752e-01 1.060952e-01) (1.151582e-02 -4.370169e-03 -3.035601e-04) (0.000000e+00 0.000000e+00 0.000000e+00)) ((-4.474785e+00 1.744089e+00 -2.528698e-02) (2.139736e-02 5.656270e-02 -2.230084e-04) (0.000000e+00 0.000000e+00 0.000000e+00))
0.003245     	((3.560073e-01 9.145362e-01 1.061292e-01) (1.150276e-02 -4.363140e-03 -3.015051e-04) (0.000000e+00 0.000000e+00 0.000000e+00)) ((-4.475083e+00 1.743958e+00 -2.529348e-02) (2.136296e-02 5.649877e-02 -2.228341e-04) (0.000000e+00 0.000000e+00 0.000000e+00))
0.00325      	((3.559937e-01 9.146216e-01 1.061586e-01) (1.148974e-02 -4.356124e-03 -2.994512e-04) (0.000000e+00 0.000000e+00 0.000000e+00)) ((-4.475501e+00 1.743890e+00 -2.530002e-02) (2.132863e-02 5.643497e-02 -2.226602e-04) (0.000000e+00 0.000000e+00 0.000000e+00))
0.003255     	((3.559646e-01 9.146754e-01 1.061846e-01) (1.147674e-02 -4.349124e-03 -2.973992e-04) (0.000000e+00 0.000000e+00 0.000000e+00)) ((-4.475764e+00 1.743745e+00 -2.530586e-02) (2.129437e-02 5.637131e-02 -2.224864e-04) (0.000000e+00 0.000000e+00 0.000000e+00))
0.00326      	((3.559889e-01 9.148069e-01 1.062080e-01) (1.146376e-02 -4.342134e-03 -2.953482e-04) (0.000000e+00 0.000000e+00 0.000000e+00)) ((-4.476411e+00 1.743864e+00 -2.530800e-02) (2.126017e-02 5.630778e-02 -2.223129e-04) (0.000000e+00 0.000000e+00 0.000000e+00))
0.003265     	((3.559931e-01 9.149206e-01 1.062341e-01) (1.145082e-02 -4.335153e-03 -2.932989e-04) (0.000000e+00 0.000000e+00 0.000000e+00)) ((-4.476966e+00 1.743882e+00 -2.531520e-02) (2.122601e-02 5.624438e-02 -2.221400e-04) (0.000000e+00 0.000000e+00 0.000000e+00))
0.00327      	((3.559447e-01 9.149458e-01 1.062630e-01) (1.143790e-02 -4.328184e-03 -2.912513e-04) (0.000000e+00 0.000000e+00 0.000000e+00)) ((-4.477087e+00 1.743641e+00 -2.532269e-02) (2.119190e-02 5.618112e-02 -2.219675e-04) (0.000000e+00 0.000000e+00 0.000000e+00))
0.003275     	((3.559180e-01 9.150125e-01 1.062944e-01) (1.142501e-02 -4.321228e-03 -2.892071e-04) (0.000000e+00 0.000000e+00 0.000000e+00)) ((-4.477409e+00 1.743506e+00 -2.533332e-02) (2.115786e-02 5.611800e-02 -2.217955e-04) (0.000000e+00 0.000000e+00 0.000000e+00))
0.00328      	((3.559197e-01 9.151180e-01 1.063284e-01) (1.141215e-02 -4.314289e-03 -2.871648e-04) (0.000000e+00 0.000000e+00 0.000000e+00)) ((-4.477923e+00 1.743512e+00 -2.534095e-02) (2.112391e-02 5.605503e-02 -2.216236e-04) (0.000000e+00 0.000000e+00 0.000000e+00))
0.003285     	((3.559525e-01 9.152676e-01 1.063569e-01) (1.139932e-02 -4.307363e-03 -2.851244e-04) (0.000000e+00 0.000000e+00 0.000000e+00)) ((-4.478658e+00 1.743673e+00 -2.534524e-02) (2.109001e-02 5.599219e-02 -2.214520e-04) (0.000000e+00 0.000000e+00 0.000000e+00))
0.00329      	((3.559506e-01 9.153610e-01 1.063815e-01) (1.138651e-02 -4.300449e-03 -2.830854e-04) (0.000000e+00 0.000000e+00 0.000000e+00)) ((-4.479117e+00 1.743663e+00 -2.534884e-02) (2.105618e-02 5.592947e-02 -2.212807e-04) (0.000000e+00 0.000000e+00 0.000000e+00))
0.003295     	((3.559533e-01 9.154640e-01 1.064086e-01) (1.137373e-02 -4.293545e-03 -2.810479e-04) (0.000000e+00 0.000000e+00 0.000000e+00)) ((-4.479623e+00 1.743676e+00 -2.535372e-02) (2.102240e-02 5.586689e-02 -2.211097e-04) (0.000000e+00 0.000000e+00 0.000000e+00))
0.0033       	((3.559600e-01 9.155681e-01 1.064372e-01) (1.136098e-02 -4.286657e-03 -2.790124e-04) (0.000000e+00 0.000000e+00 0.000000e+00)) ((-4.480132e+00 1.743706e+00 -2.535920e-02) (2.098868e-02 5.580444e-02 -2.209388e-04) (0.000000e+00 0.000000e+00 0.000000e+00))
0.003305     	((3.559201e-01 9.156014e-01 1.064649e-01) (1.134825e-02 -4.279780e-03 -2.769790e-04) (0.000000e+00 0.000000e+00 0.000000e+00)) ((-4.480294e+00 1.743509e+00 -2.536608e-02) (2.095503e-02 5.574212e-02 -2.207682e-04) (0.000000e+00 0.000000e+00 0.000000e+00))
0.00331      	((3.559139e-01 9.156936e-01 1.064945e-01) (1.133555e-02 -4.272918e-03 -2.749482e-04) (0.000000e+00 0.000000e+00 0.000000e+00)) ((-4.480745e+00 1.743477e+00 -2.537248e-02) (2.092145e-02 5.567992e-02 -2.205979e-04) (0.000000e+00 0.000000e+00 0.000000e+00))
0.003315     	((3.559421e-01 9.158387e-01 1.065232e-01) (1.132288e-02 -4.266066e-03 -2.729190e-04) (0.000000e+00 0.000000e+00 0.000000e+00)) ((-4.481456e+00 1.743613e+00 -2.537892e-02) (2.088792e-02 5.561786e-02 -2.204278e-04) (0.000000e+00 0.000000e+00 0.000000e+00))
0.00332      	((3.559873e-01 9.160093e-01 1.065522e-01) (1.131023e-02 -4.259225e-03 -2.708915e-04) (0.000000e+00 0.000000e+00 0.000000e+00)) ((-4.482289e+00 1.743832e+00 -2.538602e-02) (2.085444e-02 5.555591e-02 -2.202580e-04) (0.000000e+00 0.000000e+00 0.000000e+00))
0.003325     	((3.559780e-01 9.160902e-01 1.065742e-01) (1.129760e-02 -4.252393e-03 -2.688663e-04) (0.000000e+00 0.000000e+00 0.000000e+00)) ((-4.482686e+00 1.743785e+00 -2.539038e-02) (2.082101e-02 5.549408e-02 -2.200886e-04) (0.000000e+00 0.000000e+00 0.000000e+00))
0.00333      	((3.559317e-01 9.161144e-01 1.066049e-01) (1.128500e-02 -4.245573e-03 -2.668434e-04) (0.000000e+00 0.000000e+00 0.000000e+00)) ((-4.482804e+00 1.743557e+00 -2.539690e-02) (2.078763e-02 5.543238e-02 -2.199196e-04) (0.000000e+00 0.000000e+00 0.000000e+00))
0.003335     	((3.559707e-01 9.162717e-01 1.066287e-01) (1.127243e-02 -4.238763e-03 -2.648214e-04) (0.000000e+00 0.000000e+00 0.000000e+00)) ((-4.483578e+00 1.743748e+00 -2.539934e-02) (2.075430e-02 5.537080e-02 -2.197509e-04) (0.000000e+00 0.000000e+00 0.000000e+00))
0.00334      	((3.559375e-01 9.163237e-01 1.066582e-01) (1.125988e-02 -4.231968e-03 -2.628012e-04) (0.000000e+00 0.000000e+00 0.000000e+00)) ((-4.483830e+00 1.743583e+00 -2.540716e-02) (2.072105e-02 5.530935e-02 -2.195824e-04) (0.000000e+00 0.000000e+00 0.000000e+00))
0.003345     	((3.559147e-01 9.163909e-01 1.066876e-01) (1.124736e-02 -4.225186e-03 -2.607825e-04) (0.000000e+00 0.000000e+00 0.000000e+00)) ((-4.484158e+00 1.743468e+00 -2.541487e-02) (2.068786e-02 5.524803e-02 -2.194141e-04) (0.000000e+00 0.000000e+00 0.000000e+00))
0.00335      	((3.559069e-01 9.164784e-01 1.067156e-01) (1.123486e-02 -4.218415e-03 -2.587651e-04) (0.000000e+00 0.000000e+00 0.000000e+00)) ((-4.484584e+00 1.743427e+00 -2.542184e-02) (2.065473e-02 5.518683e-02 -2.192463e-04) (0.000000e+00 0.000000e+00 0.000000e+00))
0.003355     	((3.559111e-01 9.165802e-01 1.067429e-01) (1.122239e-02 -4.211656e-03 -2.567496e-04) (0.000000e+00 0.000000e+00 0.000000e+00)) ((-4.485084e+00 1.743447e+00 -2.542662e-02) (2.062165e-02 5.512577e-02 -2.190787e-04) (0.000000e+00 0.000000e+00 0.000000e+00))
0.00336      	((3.559103e-01 9.166789e-01 1.067728e-01) (1.120995e-02 -4.204911e-03 -2.547359e-04) (0.000000e+00 0.000000e+00 0.000000e+00)) ((-4.485564e+00 1.743440e+00 -2.543447e-02) (2.058864e-02 5.506483e-02 -2.189115e-04) (0.000000e+00 0.000000e+00 0.000000e+00))
0.003365     	((3.558909e-01 9.167470e-01 1.067979e-01) (1.119753e-02 -4.198179e-03 -2.527231e-04) (0.000000e+00 0.000000e+00 0.000000e+00)) ((-4.485897e+00 1.743344e+00 -2.544022e-02) (2.055569e-02 5.500402e-02 -2.187445e-04) (0.000000e+00 0.000000e+00 0.000000e+00))
0.00337      	((3.558685e-01 9.168098e-01 1.068245e-01) (1.118514e-02 -4.191459e-03 -2.507111e-04) (0.000000e+00 0.000000e+00 0.000000e+00)) ((-4.486205e+00 1.743231e+00 -2.544622e-02) (2.052280e-02 5.494334e-02 -2.185779e-04) (0.000000e+00 0.000000e+00 0.000000e+00))
0.003375     	((3.558835e-01 9.169270e-01 1.068520e-01) (1.117278e-02 -4.184746e-03 -2.486994e-04) (0.000000e+00 0.000000e+00 0.000000e+00)) ((-4.486778e+00 1.743303e+00 -2.545205e-02) (2.048995e-02 5.488280e-02 -2.184119e-04) (0.000000e+00 0.000000e+00 0.000000e+00))
0.00338      	((3.559223e-01 9.170831e-01 1.068768e-01) (1.116045e-02 -4.178042e-03 -2.466884e-04) (0.000000e+00 0.000000e+00 0.000000e+00)) ((-4.487541e+00 1.743491e+00 -2.545810e-02) (2.045714e-02 5.482239e-02 -2.182465e-04) (0.000000e+00 0.000000e+00 0.000000e+00))
0.003385     	((3.559133e-01 9.171716e-01 1.069076e-01) (1.114814e-02 -4.171348e-03 -2.446777e-04) (0.000000e+00 0.000000e+00 0.000000e+00)) ((-4.487972e+00 1.743444e+00 -2.546621e-02) (2.042439e-02 5.476212e-02 -2.180816e-04) (0.000000e+00 0.000000e+00 0.000000e+00))
0.00339      	((3.558764e-01 9.172013e-01 1.069324e-01) (1.113586e-02 -4.164668e-03 -2.426677e-04) (0.000000e+00 0.000000e+00 0.000000e+00)) ((-4.488119e+00 1.743262e+00 -2.547070e-02) (2.039169e-02 5.470198e-02 -2.179171e-04) (0.000000e+00 0.000000e+00 0.000000e+00))
0.003395     	((3.558354e-01 9.172371e-01 1.069634e-01) (1.112361e-02 -4.157998e-03 -2.406574e-04) (0.000000e+00 0.000000e+00 0.000000e+00)) ((-4.488290e+00 1.743058e+00 -2.547935e-02) (2.035905e-02 5.464198e-02 -2.177531e-04) (0.000000e+00 0.000000e+00 0.000000e+00))
0.0034       	((3.558035e-01 9.172746e-01 1.069909e-01) (1.111138e-02 -4.151342e-03 -2.386478e-04) (0.000000e+00 0.000000e+00 0.000000e+00)) ((-4.488471e+00 1.742898e+00 -2.548571e-02) (2.032648e-02 5.458211e-02 -2.175895e-04) (0.000000e+00 0.000000e+00 0.000000e+00))
0.003405     	((3.558672e-01 9.174663e-01 1.070166e-01) (1.109918e-02 -4.144694e-03 -2.366368e-04) (0.000000e+00 0.000000e+00 0.000000e+00)) ((-4.489413e+00 1.743211e+00 -2.548790e-02) (2.029395e-02 5.452238e-02 -2.174264e-04) (0.000000e+00 0.000000e+00 0.000000e+00))
0.00341      	((3.558824e-01 9.175853e-01 1.070375e-01) (1.108701e-02 -4.138056e-03 -2.346253e-04) (0.000000e+00 0.000000e+00 0.000000e+00)) ((-4.489997e+00 1.743284e+00 -2.549229e-02) (2.026146e-02 5.446278e-02 -2.172639e-04) (0.000000e+00 0.000000e+00 0.000000e+00))
0.003415     	((3.558410e-01 9.176086e-01 1.070637e-01) (1.107487e-02 -4.131423e-03 -2.326130e-04) (0.000000e+00 0.000000e+00 0.000000e+00)) ((-4.490112e+00 1.743079e+00 -2.549727e-02) (2.022900e-02 5.440331e-02 -2.171022e-04) (0.000000e+00 0.000000e+00 0.000000e+00))
0.00342      	((3.558251e-01 9.176802e-01 1.070921e-01) (1.106276e-02 -4.124800e-03 -2.306004e-04) (0.000000e+00 0.000000e+00 0.000000e+00)) ((-4.490464e+00 1.743001e+00 -2.550226e-02) (2.019658e-02 5.434398e-02 -2.169411e-04) (0.000000e+00 0.000000e+00 0.000000e+00))
0.003425     	((3.557993e-01 9.177401e-01 1.071183e-01) (1.105067e-02 -4.118189e-03 -2.285868e-04) (0.000000e+00 0.000000e+00 0.000000e+00)) ((-4.490753e+00 1.742871e+00 -2.551070e-02) (2.016423e-02 5.428478e-02 -2.167804e-04) (0.000000e+00 0.000000e+00 0.000000e+00))
0.00343      	((3.558507e-01 9.179116e-01 1.071431e-01) (1.103861e-02 -4.111588e-03 -2.265729e-04) (0.000000e+00 0.000000e+00 0.000000e+00)) ((-4.491595e+00 1.743122e+00 -2.551443e-02) (2.013193e-02 5.422571e-02 -2.166201e-04) (0.000000e+00 0.000000e+00 0.000000e+00))
0.003435     	((3.558118e-01 9.179380e-01 1.071677e-01) (1.102657e-02 -4.104996e-03 -2.245570e-04) (0.000000e+00 0.000000e+00 0.000000e+00)) ((-4.491727e+00 1.742931e+00 -2.551783e-02) (2.009967e-02 5.416677e-02 -2.164604e-04) (0.000000e+00 0.000000e+00 0.000000e+00))
0.00344      	((3.558042e-01 9.180143e-01 1.071967e-01) (1.101456e-02 -4.098412e-03 -2.225387e-04) (0.000000e+00 0.000000e+00 0.000000e+00)) ((-4.492102e+00 1.742893e+00 -2.552141e-02) (2.006745e-02 5.410796e-02 -2.163012e-04) (0.000000e+00 0.000000e+00 0.000000e+00))
0.003445     	((3.558113e-01 9.181208e-01 1.072215e-01) (1.100258e-02 -4.091836e-03 -2.205165e-04) (0.000000e+00 0.000000e+00 0.000000e+00)) ((-4.492621e+00 1.742925e+00 -2.552777e-02) (2.003527e-02 5.404929e-02 -2.161427e-04) (0.000000e+00 0.000000e+00 0.000000e+00))
0.00345      	((3.557775e-01 9.181628e-01 1.072497e-01) (1.099063e-02 -4.085273e-03 -2.184929e-04) (0.000000e+00 0.000000e+00 0.000000e+00)) ((-4.492827e+00 1.742758e+00 -2.553358e-02) (2.000315e-02 5.399075e-02 -2.159846e-04) (0.000000e+00 0.000000e+00 0.000000e+00))
0.003455     	((3.557732e-01 9.182499e-01 1.072785e-01) (1.097870e-02 -4.078721e-03 -2.164661e-04) (0.000000e+00 0.000000e+00 0.000000e+00)) ((-4.493253e+00 1.742736e+00 -2.553943e-02) (1.997109e-02 5.393235e-02 -2.158269e-04) (0.000000e+00 0.000000e+00 0.000000e+00))
0.00346      	((3.557321e-01 9.182813e-01 1.073055e-01) (1.096680e-02 -4.072178e-03 -2.144370e-04) (0.000000e+00 0.000000e+00 0.000000e+00)) ((-4.493407e+00 1.742533e+00 -2.554475e-02) (1.993907e-02 5.387407e-02 -2.156698e-04) (0.000000e+00 0.000000e+00 0.000000e+00))
0.003465     	((3.557634e-01 9.184130e-01 1.073326e-01) (1.095493e-02 -4.065644e-03 -2.124051e-04) (0.000000e+00 0.000000e+00 0.000000e+00)) ((-4.494053e+00 1.742685e+00 -2.554843e-02) (1.990710e-02 5.381592e-02 -2.155131e-04) (0.000000e+00 0.000000e+00 0.000000e+00))
0.00347      	((3.557547e-01 9.184914e-01 1.073539e-01) (1.094308e-02 -4.059119e-03 -2.103719e-04) (0.000000e+00 0.000000e+00 0.000000e+00)) ((-4.494438e+00 1.742641e+00 -2.555253e-02) (1.987517e-02 5.375790e-02 -2.153571e-04) (0.000000e+00 0.000000e+00 0.000000e+00))
0.003475     	((3.557155e-01 9.185298e-01 1.073781e-01) (1.093126e-02 -4.052601e-03 -2.083369e-04) (0.000000e+00 0.000000e+00 0.000000e+00)) ((-4.494626e+00 1.742447e+00 -2.555833e-02) (1.984327e-02 5.370001e-02 -2.152018e-04) (0.000000e+00 0.000000e+00 0.000000e+00))
0.00348      	((3.557164e-01 9.186252e-01 1.074030e-01) (1.091947e-02 -4.046095e-03 -2.063010e-04) (0.000000e+00 0.000000e+00 0.000000e+00)) ((-4.495093e+00 1.742450e+00 -2.556354e-02) (1.981144e-02 5.364225e-02 -2.150470e-04) (0.000000e+00 0.000000e+00 0.000000e+00))
0.003485     	((3.557161e-01 9.187090e-01 1.074327e-01) (1.090770e-02 -4.039600e-03 -2.042645e-04) (0.000000e+00 0.000000e+00 0.000000e+00)) ((-4.495503e+00 1.742447e+00 -2.556917e-02) (1.977965e-02 5.358463e-02 -2.148926e-04) (0.000000e+00 0.000000e+00 0.000000e+00))
0.00349      	((3.557571e-01 9.188639e-01 1.074586e-01) (1.089596e-02 -4.033114e-03 -2.022266e-04) (0.000000e+00 0.000000e+00 0.000000e+00)) ((-4.496263e+00 1.742648e+00 -2.557191e-02) (1.974792e-02 5.352713e-02 -2.147386e-04) (0.000000e+00 0.000000e+00 0.000000e+00))
0.003495     	((3.557072e-01 9.188811e-01 1.074878e-01) (1.088425e-02 -4.026637e-03 -2.001870e-04) (0.000000e+00 0.000000e+00 0.000000e+00)) ((-4.496345e+00 1.742400e+00 -2.557950e-02) (1.971622e-02 5.346977e-02 -2.145853e-04) (0.000000e+00 0.000000e+00 0.000000e+00))
0.0035       	((3.556650e-01 9.189043e-01 1.075082e-01) (1.087256e-02 -4.020172e-03 -1.981461e-04) (0.000000e+00 0.000000e+00 0.000000e+00)) ((-4.496461e+00 1.742193e+00 -2.558324e-02) (1.968458e-02 5.341253e-02 -2.144324e-04) (0.000000e+00 0.000000e+00 0.000000e+00))
0.003505     	((3.556121e-01 9.189170e-01 1.075315e-01) (1.086090e-02 -4.013715e-03 -1.961033e-04) (0.000000e+00 0.000000e+00 0.000000e+00)) ((-4.496522e+00 1.741931e+00 -2.559000e-02) (1.965299e-02 5.335541e-02 -2.142801e-04) (0.000000e+00 0.000000e+00 0.000000e+00))
0.00351      	((3.556236e-01 9.190217e-01 1.075553e-01) (1.084926e-02 -4.007268e-03 -1.940599e-04) (0.000000e+00 0.000000e+00 0.000000e+00)) ((-4.497038e+00 1.741987e+00 -2.559227e-02) (1.962144e-02 5.329842e-02 -2.141283e-04) (0.000000e+00 0.000000e+00 0.000000e+00))
0.003515     	((3.555938e-01 9.190579e-01 1.075785e-01) (1.083765e-02 -4.000831e-03 -1.920148e-04) (0.000000e+00 0.000000e+00 0.000000e+00)) ((-4.497215e+00 1.741840e+00 -2.559677e-02) (1.958995e-02 5.324156e-02 -2.139769e-04) (0.000000e+00 0.000000e+00 0.000000e+00))
0.00352      	((3.555691e-01 9.191148e-01 1.076048e-01) (1.082606e-02 -3.994406e-03 -1.899687e-04) (0.000000e+00 0.000000e+00 0.000000e+00)) ((-4.497493e+00 1.741716e+00 -2.560341e-02) (1.955851e-02 5.318483e-02 -2.138260e-04) (0.000000e+00 0.000000e+00 0.000000e+00))
0.003525     	((3.555690e-01 9.192151e-01 1.076316e-01) (1.081451e-02 -3.987991e-03 -1.879214e-04) (0.000000e+00 0.000000e+00 0.000000e+00)) ((-4.497984e+00 1.741715e+00 -2.560842e-02) (1.952711e-02 5.312824e-02 -2.136758e-04) (0.000000e+00 0.000000e+00 0.000000e+00))
0.00353      	((3.555790e-01 9.193165e-01 1.076557e-01) (1.080298e-02 -3.981583e-03 -1.858731e-04) (0.000000e+00 0.000000e+00 0.000000e+00)) ((-4.498483e+00 1.741763e+00 -2.561160e-02) (1.949576e-02 5.307177e-02 -2.135261e-04) (0.000000e+00 0.000000e+00 0.000000e+00))
0.003535     	((3.555340e-01 9.193412e-01 1.076827e-01) (1.079147e-02 -3.975184e-03 -1.838239e-04) (0.000000e+00 0.000000e+00 0.000000e+00)) ((-4.498602e+00 1.741540e+00 -2.561893e-02) (1.946445e-02 5.301543e-02 -2.133770e-04) (0.000000e+00 0.000000e+00 0.000000e+00))
0.00354      	((3.555263e-01 9.194188e-01 1.077101e-01) (1.077999e-02 -3.968793e-03 -1.817733e-04) (0.000000e+00 0.000000e+00 0.000000e+00)) ((-4.498981e+00 1.741500e+00 -2.562450e-02) (1.943318e-02 5.295921e-02 -2.132285e-04) (0.000000e+00 0.000000e+00 0.000000e+00))
0.003545     	((3.555468e-01 9.195484e-01 1.077345e-01) (1.076854e-02 -3.962410e-03 -1.797212e-04) (0.000000e+00 0.000000e+00 0.000000e+00)) ((-4.499616e+00 1.741599e+00 -2.562974e-02) (1.940194e-02 5.290312e-02 -2.130805e-04) (0.000000e+00 0.000000e+00 0.000000e+00))
0.00355      	((3.555872e-01 9.196982e-01 1.077541e-01) (1.075711e-02 -3.956037e-03 -1.776694e-04) (0.000000e+00 0.000000e+00 0.000000e+00)) ((-4.500355e+00 1.741799e+00 -2.563121e-02) (1.937076e-02 5.284714e-02 -2.129329e-04) (0.000000e+00 0.000000e+00 0.000000e+00))