# Moment         
# CofR           : (0.0000000000e+00 0.0000000000e+00 0.0000000000e+00)
#                
# Time           	(total_x total_y total_z)	(pressure_x pressure_y pressure_z)	(viscous_x viscous_y viscous_z)
4.901            	(2.2329446247e-01 4.8400409722e-03 2.5331944818e-02)	(2.2294575208e-01 4.7014878028e-03 2.5775050097e-02)	(3.4871038784e-04 1.3855316944e-04 -4.4310527978e-04)
4.902            	(2.2315948781e-01 4.8833914029e-03 2.5333837177e-02)	(2.2281118123e-01 4.7451804230e-03 2.5778217425e-02)	(3.4830658219e-04 1.3821097986e-04 -4.4438024875e-04)
4.903            	(2.2327435396e-01 4.9205597345e-03 2.5314396180e-02)	(2.2292645878e-01 4.7826888414e-03 2.5760084796e-02)	(3.4789517570e-04 1.3787089311e-04 -4.4568861554e-04)
4.904            	(2.2328804922e-01 4.9653270549e-03 2.5336320131e-02)	(2.2294060085e-01 4.8278298985e-03 2.5783121508e-02)	(3.4744836597e-04 1.3749715643e-04 -4.4680137635e-04)
4.905            	(2.2281207318e-01 5.0383538844e-03 2.5444394392e-02)	(2.2246512418e-01 4.9012794709e-03 2.5891885367e-02)	(3.4694899768e-04 1.3707441354e-04 -4.4749097489e-04)
4.906            	(2.2373979454e-01 5.0195289895e-03 2.5242841996e-02)	(2.2339324420e-01 4.8828164177e-03 2.5691629817e-02)	(3.4655033671e-04 1.3671257183e-04 -4.4878782076e-04)
4.907            	(2.2361546732e-01 5.0673104767e-03 2.5262240994e-02)	(2.2326932697e-01 4.9309763176e-03 2.5712192571e-02)	(3.4614035244e-04 1.3633415916e-04 -4.4995157734e-04)
4.908            	(2.2383556957e-01 5.1164100889e-03 2.5263923472e-02)	(2.2348985118e-01 4.9804735007e-03 2.5714935854e-02)	(3.4571838277e-04 1.3593658813e-04 -4.5101238233e-04)
4.909            	(2.2404161403e-01 5.1525653437e-03 2.5269640148e-02)	(2.2369628086e-01 5.0170299779e-03 2.5721627941e-02)	(3.4533317207e-04 1.3553536573e-04 -4.5198779262e-04)
4.91             	(2.2284806101e-01 5.2406057871e-03 2.5332390632e-02)	(2.2250329483e-01 5.1055323423e-03 2.5785037331e-02)	(3.4476617813e-04 1.3507344486e-04 -4.5264669967e-04)
4.911            	(2.1836729874e-01 5.2846465138e-03 2.5320543092e-02)	(2.1802355075e-01 5.1501411473e-03 2.5773543820e-02)	(3.4374799372e-04 1.3450536651e-04 -4.5300072843e-04)
4.912            	(2.2627282740e-01 5.2509293085e-03 2.5328527102e-02)	(2.2592915018e-01 5.1168601131e-03 2.5782158922e-02)	(3.4367722592e-04 1.3406919537e-04 -4.5363182038e-04)
4.913            	(2.2545591013e-01 5.2851552943e-03 2.5246091241e-02)	(2.2511243751e-01 5.1515043228e-03 2.5700534781e-02)	(3.4347261593e-04 1.3365097145e-04 -4.5444354032e-04)
4.914            	(2.2534066333e-01 5.3263912756e-03 2.5222911688e-02)	(2.2499751233e-01 5.1931826720e-03 2.5678129112e-02)	(3.4315100602e-04 1.3320860361e-04 -4.5521742402e-04)
4.915            	(2.2399107560e-01 5.4451926817e-03 2.5314731377e-02)	(2.2364839401e-01 5.3124450830e-03 2.5770530555e-02)	(3.4268159268e-04 1.3274759868e-04 -4.5579917792e-04)
4.916            	(2.2597885650e-01 5.3592830739e-03 2.5118610440e-02)	(2.2563648492e-01 5.2269781818e-03 2.5575283963e-02)	(3.4237158121e-04 1.3230489211e-04 -4.5667352347e-04)
4.917            	(2.2560970233e-01 5.4300192340e-03 2.5123788835e-02)	(2.2526767914e-01 5.2981452972e-03 2.5581371662e-02)	(3.4202319240e-04 1.3187393679e-04 -4.5758282617e-04)
4.918            	(2.2551368538e-01 5.4684121729e-03 2.5160607776e-02)	(2.2517210809e-01 5.3370221225e-03 2.5618834983e-02)	(3.4157729049e-04 1.3139005036e-04 -4.5822720676e-04)
4.919            	(2.2561992397e-01 5.5215467135e-03 2.5142394813e-02)	(2.2527876693e-01 5.3906185213e-03 2.5601344352e-02)	(3.4115704257e-04 1.3092819222e-04 -4.5894953894e-04)
4.92             	(2.2549372676e-01 5.5637983538e-03 2.5122046192e-02)	(2.2515307960e-01 5.4333574470e-03 2.5581675277e-02)	(3.4064715989e-04 1.3044090679e-04 -4.5962908544e-04)
4.921            	(2.2566451211e-01 5.6115735907e-03 2.5132818044e-02)	(2.2532433393e-01 5.4816140504e-03 2.5593075673e-02)	(3.4017818184e-04 1.2995954028e-04 -4.6025762979e-04)
4.922            	(2.2544247467e-01 5.6608136546e-03 2.5151574040e-02)	(2.2510284585e-01 5.5313760211e-03 2.5612299044e-02)	(3.3962881690e-04 1.2943763356e-04 -4.6072500381e-04)
4.923            	(2.2564321470e-01 5.6936666319e-03 2.5111820126e-02)	(2.2530407427e-01 5.5647324349e-03 2.5573111164e-02)	(3.3914042476e-04 1.2893419695e-04 -4.6129103833e-04)
4.924            	(2.2573652157e-01 5.7379272897e-03 2.5102701296e-02)	(2.2539791763e-01 5.6095225200e-03 2.5564491736e-02)	(3.3860394373e-04 1.2840476977e-04 -4.6179044052e-04)
4.925            	(2.2584785103e-01 5.7908574849e-03 2.5111325246e-02)	(2.2550973739e-01 5.6629727927e-03 2.5573597530e-02)	(3.3811364766e-04 1.2788469223e-04 -4.6227228359e-04)
4.926            	(2.2570489395e-01 5.8250509531e-03 2.5115991027e-02)	(2.2536735102e-01 5.6977228798e-03 2.5578583282e-02)	(3.3754292928e-04 1.2732807338e-04 -4.6259225478e-04)
4.927            	(2.2572618186e-01 5.8680241018e-03 2.5086737210e-02)	(2.2538919254e-01 5.7412337075e-03 2.5549742202e-02)	(3.3698931835e-04 1.2679039423e-04 -4.6300499259e-04)
4.928            	(2.2576661019e-01 5.9091244031e-03 2.5062788364e-02)	(2.2543023718e-01 5.7828927572e-03 2.5526176819e-02)	(3.3637301439e-04 1.2623164588e-04 -4.6338845522e-04)
4.929            	(2.2239791184e-01 6.0474209924e-03 2.5175658215e-02)	(2.2206249948e-01 5.9218143132e-03 2.5638981446e-02)	(3.3541236116e-04 1.2560667922e-04 -4.6332323103e-04)
4.93             	(2.2346185006e-01 6.0064988891e-03 2.5156996843e-02)	(2.2312723967e-01 5.8815496197e-03 2.5620160647e-02)	(3.3461038561e-04 1.2494926942e-04 -4.6316380426e-04)
4.931            	(2.2808710240e-01 5.9948031010e-03 2.5022246911e-02)	(2.2775272482e-01 5.8703631245e-03 2.5486028086e-02)	(3.3437757777e-04 1.2443997655e-04 -4.6378117445e-04)
4.932            	(2.2694841705e-01 6.0353891177e-03 2.4989284766e-02)	(2.2661453557e-01 5.9114934411e-03 2.5453654122e-02)	(3.3388148653e-04 1.2389567653e-04 -4.6436935614e-04)
4.933            	(2.2682330935e-01 6.0983594031e-03 2.5021376312e-02)	(2.2648994958e-01 5.9750075904e-03 2.5486187446e-02)	(3.3335976888e-04 1.2335181269e-04 -4.6481113403e-04)
4.934            	(2.2679961907e-01 6.1232267135e-03 2.4918418147e-02)	(2.2646685560e-01 6.0004134475e-03 2.5383918962e-02)	(3.3276346865e-04 1.2281326599e-04 -4.6550081463e-04)
4.935            	(2.2671826912e-01 6.1684634365e-03 2.4917748073e-02)	(2.2638609589e-01 6.0461873165e-03 2.5383896097e-02)	(3.3217323675e-04 1.2227611998e-04 -4.6614802405e-04)
4.936            	(2.2652663343e-01 6.2141640116e-03 2.4923559751e-02)	(2.2619511386e-01 6.0924523145e-03 2.5390233953e-02)	(3.3151956239e-04 1.2171169709e-04 -4.6667420216e-04)
4.937            	(2.2686224724e-01 6.2693880671e-03 2.4917071729e-02)	(2.2653133518e-01 6.1482176648e-03 2.5384338742e-02)	(3.3091206925e-04 1.2117040231e-04 -4.6726701335e-04)
4.938            	(2.2653444231e-01 6.2988366772e-03 2.4894949409e-02)	(2.2620424114e-01 6.1782235584e-03 2.5362796667e-02)	(3.3020116568e-04 1.2061311885e-04 -4.6784725809e-04)
4.939            	(2.2644837674e-01 6.3493959151e-03 2.4885414722e-02)	(2.2611886534e-01 6.2293353523e-03 2.5353842113e-02)	(3.2951140182e-04 1.2006056273e-04 -4.6842739123e-04)
4.94             	(2.2639092478e-01 6.3967590832e-03 2.4865303775e-02)	(2.2606213193e-01 6.2772574797e-03 2.5334326534e-02)	(3.2879284334e-04 1.1950160348e-04 -4.6902275916e-04)
4.941            	(2.2553276279e-01 6.4615700551e-03 2.4832992657e-02)	(2.2520476882e-01 6.3426201190e-03 2.5302769365e-02)	(3.2799396568e-04 1.1894993609e-04 -4.6977670865e-04)
4.942            	(2.2625047282e-01 6.4743266463e-03 2.4795747101e-02)	(2.2592319005e-01 6.3559362854e-03 2.5266224364e-02)	(3.2728276947e-04 1.1839036096e-04 -4.7047726315e-04)
4.943            	(2.2615311578e-01 6.5268367390e-03 2.4810432865e-02)	(2.2582652102e-01 6.4090078536e-03 2.5281550168e-02)	(3.2659475884e-04 1.1782888543e-04 -4.7111730386e-04)
4.944            	(2.2598746305e-01 6.5729682698e-03 2.4789773455e-02)	(2.2566158950e-01 6.4557043733e-03 2.5261555943e-02)	(3.2587355128e-04 1.1726389649e-04 -4.7178248809e-04)
4.945            	(2.2612626023e-01 6.6078458694e-03 2.4760184333e-02)	(2.2580107620e-01 6.4911312396e-03 2.5232735456e-02)	(3.2518403587e-04 1.1671462986e-04 -4.7255112332e-04)
4.946            	(2.2567435635e-01 6.6663443801e-03 2.4793556208e-02)	(2.2534992540e-01 6.5502025375e-03 2.5266674700e-02)	(3.2443094396e-04 1.1614184261e-04 -4.7311849265e-04)
4.947            	(2.2597567572e-01 6.7082404433e-03 2.4754937722e-02)	(2.2565191174e-01 6.5926546690e-03 2.5228759743e-02)	(3.2376397733e-04 1.1558577431e-04 -4.7382202101e-04)
4.948            	(2.2558271608e-01 6.7659983503e-03 2.4781148032e-02)	(2.2525965319e-01 6.6509932856e-03 2.5255470003e-02)	(3.2306289451e-04 1.1500506472e-04 -4.7432197129e-04)
4.949            	(2.1860846169e-01 6.8646022680e-03 2.4904070393e-02)	(2.1828684548e-01 6.7503472041e-03 2.5377947176e-02)	(3.2161620713e-04 1.1425506389e-04 -4.7387678300e-04)
4.95             	(2.2789563731e-01 6.8896593675e-03 2.4792339305e-02)	(2.2757422880e-01 6.7759457223e-03 2.5266774507e-02)	(3.2140851453e-04 1.1371364520e-04 -4.7443520252e-04)
4.951            	(2.2633095813e-01 6.9085555268e-03 2.4869159842e-02)	(2.2601000319e-01 6.7954446117e-03 2.5343630592e-02)	(3.2095494300e-04 1.1311091508e-04 -4.7447075015e-04)
4.952            	(2.2541895582e-01 6.9706615153e-03 2.4861361070e-02)	(2.2509857175e-01 6.8581671815e-03 2.5335830710e-02)	(3.2038406909e-04 1.1249433377e-04 -4.7446964022e-04)
4.953            	(2.2573325946e-01 6.9994518279e-03 2.4777856253e-02)	(2.2541341277e-01 6.8875394160e-03 2.5252687586e-02)	(3.1984668902e-04 1.1191241187e-04 -4.7483133341e-04)
4.954            	(2.2521454893e-01 7.0499968037e-03 2.4759017971e-02)	(2.2489529668e-01 6.9386764274e-03 2.5234245527e-02)	(3.1925224933e-04 1.1132037634e-04 -4.7522755569e-04)
4.955            	(2.2460021820e-01 7.1680985767e-03 2.4904185619e-02)	(2.2428161805e-01 7.0573887941e-03 2.5379365810e-02)	(3.1860015629e-04 1.1070978252e-04 -4.7518019066e-04)
4.956            	(2.2509710726e-01 7.1517843668e-03 2.4685962820e-02)	(2.2477911793e-01 7.0416368395e-03 2.5161854676e-02)	(3.1798932562e-04 1.1014752726e-04 -4.7589185592e-04)
4.957            	(2.2473531956e-01 7.2185980346e-03 2.4737062312e-02)	(2.2441798198e-01 7.1090248748e-03 2.5213466228e-02)	(3.1733757274e-04 1.0957315979e-04 -4.7640391571e-04)
4.958            	(2.2503969485e-01 7.2495205223e-03 2.4654708972e-02)	(2.2472302627e-01 7.1405005149e-03 2.5131920867e-02)	(3.1666858420e-04 1.0902000741e-04 -4.7721189530e-04)
4.959            	(2.2462946304e-01 7.3130367498e-03 2.4679351886e-02)	(2.2431353055e-01 7.2045680583e-03 2.5157285835e-02)	(3.1593249737e-04 1.0846869145e-04 -4.7793394935e-04)
4.96             	(2.2425911893e-01 7.3713917637e-03 2.4686498403e-02)	(2.2394402208e-01 7.2634810253e-03 2.5165099600e-02)	(3.1509684820e-04 1.0791073844e-04 -4.7860119666e-04)
4.961            	(2.2458095324e-01 7.4045024640e-03 2.4630378396e-02)	(2.2426663675e-01 7.2971236392e-03 2.5109860591e-02)	(3.1431649134e-04 1.0737882482e-04 -4.7948219494e-04)
4.962            	(2.2386945428e-01 7.4693553471e-03 2.4656433208e-02)	(2.2355602311e-01 7.3625356862e-03 2.5136601608e-02)	(3.1343116751e-04 1.0681966088e-04 -4.8016839976e-04)
4.963            	(2.2423637037e-01 7.5058046428e-03 2.4581786680e-02)	(2.2392374084e-01 7.3995123814e-03 2.5062900572e-02)	(3.1262952977e-04 1.0629226138e-04 -4.8111389263e-04)
4.964            	(2.2405047536e-01 7.5594804513e-03 2.4579429891e-02)	(2.2373868413e-01 7.4537288190e-03 2.5061423781e-02)	(3.1179122371e-04 1.0575163237e-04 -4.8199389083e-04)
4.965            	(2.2382448131e-01 7.6052850306e-03 2.4545317378e-02)	(2.2351352169e-01 7.5000641670e-03 2.5028299546e-02)	(3.1095962093e-04 1.0522086355e-04 -4.8298216781e-04)
4.966            	(2.2383900810e-01 7.6458064878e-03 2.4532390677e-02)	(2.2352890696e-01 7.5411255954e-03 2.5016223572e-02)	(3.1010113744e-04 1.0468089241e-04 -4.8383289500e-04)
4.967            	(2.1966902206e-01 7.7899844167e-03 2.4587205658e-02)	(2.1936025293e-01 7.6858892937e-03 2.5071532934e-02)	(3.0876912464e-04 1.0409512296e-04 -4.8432727635e-04)
4.968            	(2.2292113373e-01 7.7989066004e-03 2.4730463022e-02)	(2.2261319613e-01 7.6953968234e-03 2.5214833309e-02)	(3.0793760291e-04 1.0350977698e-04 -4.8437028769e-04)
4.969            	(2.2238176673e-01 7.8731852383e-03 2.4446200995e-02)	(2.2207468592e-01 7.7701776619e-03 2.4931560129e-02)	(3.0708081839e-04 1.0300757637e-04 -4.8535913416e-04)
4.97             	(2.2310732678e-01 7.8610925211e-03 2.4462708445e-02)	(2.2280097808e-01 7.7586205885e-03 2.4948892910e-02)	(3.0634870537e-04 1.0247193263e-04 -4.8618446572e-04)
4.971            	(2.2300873033e-01 7.9146195478e-03 2.4421779223e-02)	(2.2270307719e-01 7.8126658574e-03 2.4908881873e-02)	(3.0565314281e-04 1.0195369039e-04 -4.8710265053e-04)
4.972            	(2.2296510112e-01 7.9496890585e-03 2.4343511524e-02)	(2.2266014618e-01 7.8482553132e-03 2.4831677320e-02)	(3.0495494049e-04 1.0143374530e-04 -4.8816579626e-04)
4.973            	(2.2252125171e-01 8.0198523736e-03 2.4395896335e-02)	(2.2221700652e-01 7.9189434077e-03 2.4884824752e-02)	(3.0424518844e-04 1.0090896585e-04 -4.8892841668e-04)
4.974            	(2.2243509829e-01 8.0491977351e-03 2.4359114149e-02)	(2.2213157847e-01 7.9488310506e-03 2.4848783968e-02)	(3.0351981885e-04 1.0036668455e-04 -4.8966981879e-04)
4.975            	(2.2204310157e-01 8.1338330238e-03 2.4406770344e-02)	(2.2174028971e-01 8.0340029375e-03 2.4896955814e-02)	(3.0281185736e-04 9.9830086226e-05 -4.9018547060e-04)
4.976            	(2.2191221179e-01 8.1811117543e-03 2.4386141475e-02)	(2.2161013541e-01 8.0818328306e-03 2.4876802310e-02)	(3.0207637664e-04 9.9278923764e-05 -4.9066083506e-04)
4.977            	(2.2171782417e-01 8.2456340324e-03 2.4395703604e-02)	(2.2141645752e-01 8.1468961566e-03 2.4886761371e-02)	(3.0136665561e-04 9.8737875795e-05 -4.9105776720e-04)
4.978            	(2.2148368876e-01 8.3013517854e-03 2.4380515884e-02)	(2.2118308874e-01 8.2031696468e-03 2.4871912293e-02)	(3.0060002335e-04 9.8182138649e-05 -4.9139640892e-04)
4.979            	(2.2136859539e-01 8.3525982970e-03 2.4379089669e-02)	(2.2106873061e-01 8.2549609827e-03 2.4870788586e-02)	(2.9986477463e-04 9.7637314341e-05 -4.9169891677e-04)
4.98             	(2.1842389757e-01 8.5797263191e-03 2.4741310032e-02)	(2.1812511143e-01 8.4827065158e-03 2.5231918256e-02)	(2.9878614470e-04 9.7019803370e-05 -4.9060822433e-04)
4.981            	(2.2163447841e-01 8.4159595466e-03 2.4266148567e-02)	(2.2133631408e-01 8.3194626162e-03 2.4757390880e-02)	(2.9816432999e-04 9.6496930380e-05 -4.9124231220e-04)
4.982            	(2.2074121913e-01 8.4985110556e-03 2.4333270778e-02)	(2.2044384891e-01 8.4025692696e-03 2.4824792471e-02)	(2.9737022290e-04 9.5941785953e-05 -4.9152169286e-04)
4.983            	(2.2075626705e-01 8.5461107205e-03 2.4331870772e-02)	(2.2045967142e-01 8.4507052155e-03 2.4823640716e-02)	(2.9659562305e-04 9.5405505059e-05 -4.9176994418e-04)
4.984            	(2.2044121001e-01 8.6003677167e-03 2.4340087200e-02)	(2.2014549430e-01 8.5055151614e-03 2.4831952652e-02)	(2.9571570245e-04 9.4852555250e-05 -4.9186545187e-04)
4.985            	(2.2037110430e-01 8.6404051044e-03 2.4293810981e-02)	(2.2007624349e-01 8.5460837051e-03 2.4785897835e-02)	(2.9486081158e-04 9.4321399340e-05 -4.9208685433e-04)
4.986            	(2.1685042605e-01 8.6460842333e-03 2.4194376920e-02)	(2.1655686977e-01 8.5523675933e-03 2.4686585193e-02)	(2.9355628661e-04 9.3716639911e-05 -4.9220827329e-04)
4.987            	(2.2200753166e-01 8.7635586141e-03 2.4390768289e-02)	(2.2171461284e-01 8.6703442632e-03 2.4882805613e-02)	(2.9291881952e-04 9.3214350890e-05 -4.9203732431e-04)
4.988            	(2.2024331228e-01 8.7908732418e-03 2.4273661311e-02)	(2.1995128306e-01 8.6981863685e-03 2.4765655543e-02)	(2.9202922029e-04 9.2686873314e-05 -4.9199423136e-04)
4.989            	(2.2003543330e-01 8.8288245778e-03 2.4211264294e-02)	(2.1974427750e-01 8.7366516890e-03 2.4703360762e-02)	(2.9115580263e-04 9.2172888766e-05 -4.9209646877e-04)
4.99             	(2.1934010109e-01 8.9134220882e-03 2.4314964614e-02)	(2.1904991960e-01 8.8217834502e-03 2.4806661260e-02)	(2.9018148816e-04 9.1638637974e-05 -4.9169664558e-04)
4.991            	(2.2013951909e-01 8.8731937018e-03 2.4205265356e-02)	(2.1985015900e-01 8.7820749052e-03 2.4696658977e-02)	(2.8936009122e-04 9.1118796628e-05 -4.9139362163e-04)
4.992            	(2.1917772759e-01 8.9323777882e-03 2.4210725292e-02)	(2.1888931328e-01 8.8418053797e-03 2.4701656842e-02)	(2.8841430711e-04 9.0572408486e-05 -4.9093155023e-04)
4.993            	(2.1899832010e-01 8.9868057551e-03 2.4170570845e-02)	(2.1871079390e-01 8.8967560796e-03 2.4661089196e-02)	(2.8752620501e-04 9.0049675510e-05 -4.9051835068e-04)
4.994            	(2.1873128899e-01 9.0296257326e-03 2.4130164510e-02)	(2.1844468995e-01 8.9401145862e-03 2.4620224575e-02)	(2.8659903796e-04 8.9511146456e-05 -4.9006006503e-04)
4.995            	(2.1783632871e-01 9.1164320550e-03 2.4147136202e-02)	(2.1755066970e-01 9.0274459989e-03 2.4636609142e-02)	(2.8565901770e-04 8.8986056092e-05 -4.8947293967e-04)
4.996            	(2.1822620565e-01 9.1249304162e-03 2.4090840166e-02)	(2.1794141467e-01 9.0364791438e-03 2.4579739576e-02)	(2.8479098253e-04 8.8451272413e-05 -4.8889940923e-04)
4.997            	(2.1768487141e-01 9.1845373450e-03 2.4102361163e-02)	(2.1740095966e-01 9.0966190909e-03 2.4590525057e-02)	(2.8391174797e-04 8.7918254021e-05 -4.8816389470e-04)
4.998            	(2.1760593653e-01 9.2003360282e-03 2.4064784909e-02)	(2.1732288948e-01 9.1129659747e-03 2.4552162317e-02)	(2.8304705149e-04 8.7370053493e-05 -4.8737740775e-04)
4.999            	(2.1749333585e-01 9.2537954729e-03 2.4100121093e-02)	(2.1721111485e-01 9.1669676864e-03 2.4586500031e-02)	(2.8222099706e-04 8.6827786530e-05 -4.8637893788e-04)
5                	(2.1727891193e-01 9.2658316219e-03 2.4052727460e-02)	(2.1699756666e-01 9.1795628428e-03 2.4538084104e-02)	(2.8134526715e-04 8.6268779055e-05 -4.8535664406e-04)
5.001            	(2.1730790477e-01 9.2823741355e-03 2.4114406198e-02)	(2.1702740470e-01 9.1966735007e-03 2.4598433875e-02)	(2.8050006785e-04 8.5700634781e-05 -4.8402767664e-04)
5.002            	(2.0424349658e-01 9.5536601675e-03 2.4363618069e-02)	(2.0396531507e-01 9.4687145499e-03 2.4844744391e-02)	(2.7818151966e-04 8.4945617518e-05 -4.8112632187e-04)
5.003            	(2.1895610624e-01 9.3447431525e-03 2.4020286123e-02)	(2.1867830082e-01 9.2603259847e-03 2.4500483563e-02)	(2.7780542440e-04 8.4417167708e-05 -4.8019744039e-04)
5.004            	(2.1650360640e-01 9.4733598147e-03 2.4210783668e-02)	(2.1622656512e-01 9.3895190523e-03 2.4689138240e-02)	(2.7704128327e-04 8.3840762422e-05 -4.7835457199e-04)
5.005            	(2.1702050943e-01 9.4868324832e-03 2.4056199608e-02)	(2.1674416479e-01 9.4035261504e-03 2.4533330768e-02)	(2.7634464131e-04 8.3306332780e-05 -4.7713116031e-04)
5.006            	(2.1656920963e-01 9.5240188057e-03 2.4121430837e-02)	(2.1629371494e-01 9.4412846757e-03 2.4596972152e-02)	(2.7549468325e-04 8.2734129951e-05 -4.7554131598e-04)
5.007            	(2.1650984521e-01 9.5340314381e-03 2.4007400451e-02)	(2.1623521516e-01 9.4518567440e-03 2.4481640649e-02)	(2.7463005183e-04 8.2174694172e-05 -4.7424019801e-04)
5.008            	(2.1526680094e-01 9.8181691784e-03 2.4572775676e-02)	(2.1499324487e-01 9.7365657987e-03 2.5043887577e-02)	(2.7355607002e-04 8.1603379702e-05 -4.7111190117e-04)
5.009            	(2.1576422129e-01 9.6254646648e-03 2.3871943088e-02)	(2.1549159046e-01 9.5444117498e-03 2.4342431235e-02)	(2.7263082826e-04 8.1052914908e-05 -4.7048814779e-04)
5.01             	(2.1623500175e-01 9.6390593317e-03 2.3884440250e-02)	(2.1596336018e-01 9.5585771563e-03 2.4354230259e-02)	(2.7164156917e-04 8.0482175374e-05 -4.6979000873e-04)
5.011            	(2.1560403194e-01 9.7164783464e-03 2.3906162256e-02)	(2.1533348435e-01 9.6365378381e-03 2.4375277612e-02)	(2.7054759162e-04 7.9940508325e-05 -4.6911535511e-04)
5.012            	(2.1517274460e-01 9.7433608385e-03 2.3873025495e-02)	(2.1490345099e-01 9.6639870743e-03 2.4341488950e-02)	(2.6929360771e-04 7.9373764181e-05 -4.6846345471e-04)
5.013            	(2.1510819547e-01 9.7908783317e-03 2.3828910319e-02)	(2.1484016731e-01 9.7120536448e-03 2.4296909494e-02)	(2.6802816789e-04 7.8824686910e-05 -4.6799917466e-04)
5.014            	(2.1469305915e-01 9.8470821459e-03 2.3809590359e-02)	(2.1442642128e-01 9.7688164991e-03 2.4277082859e-02)	(2.6663786935e-04 7.8265646792e-05 -4.6749249998e-04)
5.015            	(2.1481328934e-01 9.8843580091e-03 2.3763686323e-02)	(2.1454799460e-01 9.8066370952e-03 2.4230814811e-02)	(2.6529474727e-04 7.7720913877e-05 -4.6712848760e-04)
5.016            	(2.1410755078e-01 9.9322182273e-03 2.3741491693e-02)	(2.1384373383e-01 9.8550635231e-03 2.4208224960e-02)	(2.6381694795e-04 7.7154704208e-05 -4.6673326686e-04)
5.017            	(2.1454419426e-01 9.9401201694e-03 2.3692997036e-02)	(2.1428177098e-01 9.8635211405e-03 2.4159443465e-02)	(2.6242327342e-04 7.6599028986e-05 -4.6644642855e-04)
5.018            	(2.1566483365e-01 9.9248668842e-03 2.3641822658e-02)	(2.1540374426e-01 9.8488334634e-03 2.4108053535e-02)	(2.6108939546e-04 7.6033420742e-05 -4.6623087754e-04)
5.019            	(2.1442313659e-01 1.0055788956e-02 2.3735047414e-02)	(2.1416348581e-01 9.9803068369e-03 2.4200691632e-02)	(2.5965077914e-04 7.5482118696e-05 -4.6564421708e-04)
5.02             	(2.1424259322e-01 1.0081091270e-02 2.3653769426e-02)	(2.1398441952e-01 1.0006183264e-02 2.4119031123e-02)	(2.5817369834e-04 7.4908006081e-05 -4.6526169708e-04)
5.021            	(2.1387601075e-01 1.0125524682e-02 2.3620337735e-02)	(2.1361927202e-01 1.0051182302e-02 2.4085270172e-02)	(2.5673872657e-04 7.4342380129e-05 -4.6493243640e-04)
5.022            	(2.1362868603e-01 1.0169159424e-02 2.3592297077e-02)	(2.1337338332e-01 1.0095405246e-02 2.4056836598e-02)	(2.5530271317e-04 7.3754178049e-05 -4.6453952183e-04)
5.023            	(2.1337834826e-01 1.0209497540e-02 2.3563628161e-02)	(2.1312442903e-01 1.0136317583e-02 2.4027814232e-02)	(2.5391922998e-04 7.3179956642e-05 -4.6418607091e-04)
5.024            	(2.1302487933e-01 1.0256771123e-02 2.3549868338e-02)	(2.1277234172e-01 1.0184176423e-02 2.4013637059e-02)	(2.5253761261e-04 7.2594699664e-05 -4.6376872090e-04)
5.025            	(2.1303288346e-01 1.0280918793e-02 2.3512769994e-02)	(2.1278163024e-01 1.0208898822e-02 2.3976202845e-02)	(2.5125321228e-04 7.2019971079e-05 -4.6343285069e-04)
5.026            	(2.1292936706e-01 1.0306705494e-02 2.3486615260e-02)	(2.1267936304e-01 1.0235270783e-02 2.3949685674e-02)	(2.5000401965e-04 7.1434711169e-05 -4.6307041389e-04)
5.027            	(2.1243907483e-01 1.0387508511e-02 2.3590548355e-02)	(2.1219023510e-01 1.0316640771e-02 2.4052799682e-02)	(2.4883972734e-04 7.0867740658e-05 -4.6225132647e-04)
5.028            	(2.1049501692e-01 1.0435188252e-02 2.3564254454e-02)	(2.1024748926e-01 1.0364925755e-02 2.4025641954e-02)	(2.4752765650e-04 7.0262497532e-05 -4.6138750033e-04)
5.029            	(2.1279584533e-01 1.0391499195e-02 2.3357328053e-02)	(2.1254921046e-01 1.0321811864e-02 2.3818597840e-02)	(2.4663486126e-04 6.9687330616e-05 -4.6126978787e-04)
5.03             	(2.1177877910e-01 1.0514837572e-02 2.3567041513e-02)	(2.1153313606e-01 1.0445722857e-02 2.4027400368e-02)	(2.4564304044e-04 6.9114714849e-05 -4.6035885541e-04)
5.031            	(2.0689633131e-01 1.0542760738e-02 2.3317343989e-02)	(2.0665210969e-01 1.0474272410e-02 2.3777388454e-02)	(2.4422161190e-04 6.8488328085e-05 -4.6004446511e-04)
5.032            	(2.1397981901e-01 1.0476219009e-02 2.3350422559e-02)	(2.1373608156e-01 1.0408269671e-02 2.3810334152e-02)	(2.4373744846e-04 6.7949338453e-05 -4.5991159339e-04)
5.033            	(2.1206166179e-01 1.0521538040e-02 2.3216085402e-02)	(2.1181858339e-01 1.0454138691e-02 2.3676222439e-02)	(2.4307840491e-04 6.7399348751e-05 -4.6013703689e-04)
5.034            	(2.1109887849e-01 1.0599538454e-02 2.3290593153e-02)	(2.1085659475e-01 1.0532690970e-02 2.3750593823e-02)	(2.4228374204e-04 6.6847484840e-05 -4.6000067054e-04)
5.035            	(2.1228716343e-01 1.0540489166e-02 2.3158259731e-02)	(2.1204546777e-01 1.0474182488e-02 2.3618421622e-02)	(2.4169566615e-04 6.6306678365e-05 -4.6016189065e-04)
5.036            	(2.1184220268e-01 1.0595293515e-02 2.3157871556e-02)	(2.1160113173e-01 1.0529538100e-02 2.3618129538e-02)	(2.4107094947e-04 6.5755414421e-05 -4.6025798162e-04)
5.037            	(2.1136438826e-01 1.0646983407e-02 2.3141889167e-02)	(2.1112396281e-01 1.0581767984e-02 2.3602308302e-02)	(2.4042545075e-04 6.5215423047e-05 -4.6041913499e-04)
5.038            	(2.1119075854e-01 1.0656457044e-02 2.3070384357e-02)	(2.1095103333e-01 1.0591793703e-02 2.3531059672e-02)	(2.3972520867e-04 6.4663341974e-05 -4.6067531443e-04)
5.039            	(2.1079442862e-01 1.0690147335e-02 2.3032960975e-02)	(2.1055542203e-01 1.0626022641e-02 2.3493967961e-02)	(2.3900658996e-04 6.4124694183e-05 -4.6100698559e-04)
5.04             	(2.1065953134e-01 1.0722164741e-02 2.2975763229e-02)	(2.1042121819e-01 1.0658587041e-02 2.3437187633e-02)	(2.3831314502e-04 6.3577700799e-05 -4.6142440391e-04)
5.041            	(2.1033226253e-01 1.0741876052e-02 2.2968511319e-02)	(2.1009464228e-01 1.0678845335e-02 2.3430230136e-02)	(2.3762024623e-04 6.3030717399e-05 -4.6171881751e-04)
5.042            	(2.0999634168e-01 1.0785033675e-02 2.2871066686e-02)	(2.0975940960e-01 1.0722562957e-02 2.3333349276e-02)	(2.3693208197e-04 6.2470718138e-05 -4.6228259014e-04)
5.043            	(2.1003672161e-01 1.0798144086e-02 2.2837139964e-02)	(2.0980039001e-01 1.0736229128e-02 2.3299962710e-02)	(2.3633160247e-04 6.1914958432e-05 -4.6282274573e-04)
5.044            	(2.0966359264e-01 1.0836417154e-02 2.2791801661e-02)	(2.0942792645e-01 1.0775062176e-02 2.3255179394e-02)	(2.3566619084e-04 6.1354978123e-05 -4.6337773271e-04)
5.045            	(2.0543223074e-01 1.0871143826e-02 2.2680885347e-02)	(2.0519765189e-01 1.0810395862e-02 2.3144778048e-02)	(2.3457885267e-04 6.0747963444e-05 -4.6389270086e-04)
5.046            	(2.1016692891e-01 1.0880893568e-02 2.2676127921e-02)	(2.0993275814e-01 1.0820700541e-02 2.3140663937e-02)	(2.3417077166e-04 6.0193026328e-05 -4.6453601616e-04)
5.047            	(2.0966565324e-01 1.0879863037e-02 2.2652906275e-02)	(2.0943189045e-01 1.0820232813e-02 2.3117944427e-02)	(2.3376278980e-04 5.9630224400e-05 -4.6503815285e-04)
5.048            	(2.0945117260e-01 1.0915942152e-02 2.2591971215e-02)	(2.0921780873e-01 1.0856884927e-02 2.3057629016e-02)	(2.3336387726e-04 5.9057224901e-05 -4.6565780156e-04)
5.049            	(2.0930708953e-01 1.0924768656e-02 2.2510344645e-02)	(2.0907409476e-01 1.0866291515e-02 2.2976821574e-02)	(2.3299477579e-04 5.8477140672e-05 -4.6647692852e-04)
5.05             	(2.0828345923e-01 1.1003365272e-02 2.2557175766e-02)	(2.0805095934e-01 1.0945480829e-02 2.3024163072e-02)	(2.3249988422e-04 5.7884442479e-05 -4.6698730616e-04)
5.051            	(2.0797898807e-01 1.1034787605e-02 2.2492089621e-02)	(2.0774692756e-01 1.0977493933e-02 2.2959730688e-02)	(2.3206050742e-04 5.7293672143e-05 -4.6764106688e-04)
5.052            	(2.0788149406e-01 1.1054321012e-02 2.2460261461e-02)	(2.0764988057e-01 1.0997634814e-02 2.2928500739e-02)	(2.3161348421e-04 5.6686198042e-05 -4.6823927794e-04)
5.053            	(2.0717418367e-01 1.1105016105e-02 2.2499003299e-02)	(2.0694302825e-01 1.1048923192e-02 2.2967565368e-02)	(2.3115541782e-04 5.6092913443e-05 -4.6856206947e-04)
5.054            	(2.0665389323e-01 1.1166013382e-02 2.2465183005e-02)	(2.0642326822e-01 1.1110517286e-02 2.2934049783e-02)	(2.3062500907e-04 5.5496096160e-05 -4.6886677807e-04)
5.055            	(2.0726762903e-01 1.1124944715e-02 2.2324702394e-02)	(2.0703739941e-01 1.1070050473e-02 2.2794210207e-02)	(2.3022962122e-04 5.4894242149e-05 -4.6950781338e-04)
5.056            	(2.0677794434e-01 1.1176032309e-02 2.2310140793e-02)	(2.0654814586e-01 1.1121741872e-02 2.2780156349e-02)	(2.2979847695e-04 5.4290437345e-05 -4.7001555588e-04)
5.057            	(2.0667276347e-01 1.1184729806e-02 2.2220129867e-02)	(2.0644336499e-01 1.1131044151e-02 2.2690822518e-02)	(2.2939848446e-04 5.3685655328e-05 -4.7069265098e-04)
5.058            	(2.0641497042e-01 1.1201306981e-02 2.2170826918e-02)	(2.0618599008e-01 1.1148234129e-02 2.2642158373e-02)	(2.2898033434e-04 5.3072852497e-05 -4.7133145553e-04)
5.059            	(2.0619438540e-01 1.1237631159e-02 2.2150161393e-02)	(2.0596581793e-01 1.1185154299e-02 2.2622023952e-02)	(2.2856747477e-04 5.2476860048e-05 -4.7186255914e-04)
5.06             	(2.0347229954e-01 1.1273062998e-02 2.2099027223e-02)	(2.0324446004e-01 1.1221213614e-02 2.2571255094e-02)	(2.2783949648e-04 5.1849383369e-05 -4.7222787075e-04)
5.061            	(2.0369851927e-01 1.1407300238e-02 2.2186165098e-02)	(2.0347133045e-01 1.1356033013e-02 2.2658392610e-02)	(2.2718881936e-04 5.1267224624e-05 -4.7222751171e-04)
5.062            	(2.0648932396e-01 1.1284196997e-02 2.2018742701e-02)	(2.0626242079e-01 1.1233518711e-02 2.2491405991e-02)	(2.2690316937e-04 5.0678286489e-05 -4.7266329017e-04)
5.063            	(2.0514685812e-01 1.1367820698e-02 2.2018904306e-02)	(2.0492038777e-01 1.1317716498e-02 2.2491785759e-02)	(2.2647035338e-04 5.0104199749e-05 -4.7288145342e-04)
5.064            	(2.0503641183e-01 1.1343041613e-02 2.1877637736e-02)	(2.0481041890e-01 1.1293540919e-02 2.2350945196e-02)	(2.2599292610e-04 4.9500694600e-05 -4.7330745932e-04)
5.065            	(2.0484003540e-01 1.1376273247e-02 2.1836281089e-02)	(2.0461452648e-01 1.1327368343e-02 2.2309963756e-02)	(2.2550892005e-04 4.8904903963e-05 -4.7368266721e-04)
5.066            	(2.0458653988e-01 1.1391274260e-02 2.1774192188e-02)	(2.0436155373e-01 1.1342969112e-02 2.2248175129e-02)	(2.2498614530e-04 4.8305147646e-05 -4.7398294083e-04)
5.067            	(2.0363697638e-01 1.1433607018e-02 2.1736764976e-02)	(2.0341260320e-01 1.1385893770e-02 2.2210928755e-02)	(2.2437318387e-04 4.7713248043e-05 -4.7416377832e-04)