# Forces     
# CofR       : (0.000000e+00 0.000000e+00 0.000000e+00)
# Time       forces(pressure viscous porous) moment(pressure viscous porous)
0.0040025    	((3.550606e-01 9.258206e-01 1.107912e-01) (9.810974e-03 -3.419450e-03 6.862581e-07) (0.000000e+00 0.000000e+00 0.000000e+00)) ((-4.529829e+00 1.738887e+00 -2.646679e-02) (1.674500e-02 4.821309e-02 -2.008243e-04) (0.000000e+00 0.000000e+00 0.000000e+00))
0.004005     	((3.556250e-01 9.256281e-01 1.103948e-01) (9.807802e-03 -3.415671e-03 1.907255e-06) (0.000000e+00 0.000000e+00 0.000000e+00)) ((-4.528952e+00 1.741677e+00 -2.639677e-02) (1.672651e-02 4.819745e-02 -2.008461e-04) (0.000000e+00 0.000000e+00 0.000000e+00))
0.0040075    	((3.554594e-01 9.250603e-01 1.101748e-01) (9.804367e-03 -3.411998e-03 3.109330e-06) (0.000000e+00 0.000000e+00 0.000000e+00)) ((-4.526247e+00 1.740894e+00 -2.632603e-02) (1.670855e-02 4.818055e-02 -2.008565e-04) (0.000000e+00 0.000000e+00 0.000000e+00))
0.00401      	((3.551835e-01 9.246540e-01 1.100470e-01) (9.800582e-03 -3.408419e-03 4.285507e-06) (0.000000e+00 0.000000e+00 0.000000e+00)) ((-4.524323e+00 1.739568e+00 -2.626880e-02) (1.669105e-02 4.816196e-02 -2.008530e-04) (0.000000e+00 0.000000e+00 0.000000e+00))
0.0040125    	((3.548792e-01 9.242920e-01 1.099590e-01) (9.796564e-03 -3.404936e-03 5.426265e-06) (0.000000e+00 0.000000e+00 0.000000e+00)) ((-4.522607e+00 1.738099e+00 -2.622088e-02) (1.667402e-02 4.814225e-02 -2.008386e-04) (0.000000e+00 0.000000e+00 0.000000e+00))
0.004015     	((3.546124e-01 9.240097e-01 1.098954e-01) (9.792394e-03 -3.401548e-03 6.532027e-06) (0.000000e+00 0.000000e+00 0.000000e+00)) ((-4.521273e+00 1.736809e+00 -2.618256e-02) (1.665745e-02 4.812179e-02 -2.008157e-04) (0.000000e+00 0.000000e+00 0.000000e+00))
0.0040175    	((3.543643e-01 9.237607e-01 1.098474e-01) (9.788117e-03 -3.398243e-03 7.608367e-06) (0.000000e+00 0.000000e+00 0.000000e+00)) ((-4.520094e+00 1.735608e+00 -2.615101e-02) (1.664129e-02 4.810082e-02 -2.007860e-04) (0.000000e+00 0.000000e+00 0.000000e+00))
0.00402      	((3.541673e-01 9.235792e-01 1.098116e-01) (9.783756e-03 -3.395009e-03 8.661914e-06) (0.000000e+00 0.000000e+00 0.000000e+00)) ((-4.519239e+00 1.734654e+00 -2.612508e-02) (1.662546e-02 4.807945e-02 -2.007507e-04) (0.000000e+00 0.000000e+00 0.000000e+00))
0.0040225    	((3.539672e-01 9.233970e-01 1.097909e-01) (9.779332e-03 -3.391836e-03 9.694830e-06) (0.000000e+00 0.000000e+00 0.000000e+00)) ((-4.518373e+00 1.733683e+00 -2.610684e-02) (1.660993e-02 4.805776e-02 -2.007106e-04) (0.000000e+00 0.000000e+00 0.000000e+00))
0.004025     	((3.538066e-01 9.232655e-01 1.097759e-01) (9.774857e-03 -3.388715e-03 1.071154e-05) (0.000000e+00 0.000000e+00 0.000000e+00)) ((-4.517753e+00 1.732904e+00 -2.609013e-02) (1.659466e-02 4.803583e-02 -2.006667e-04) (0.000000e+00 0.000000e+00 0.000000e+00))
0.0040275    	((3.536693e-01 9.231615e-01 1.097625e-01) (9.770340e-03 -3.385639e-03 1.171286e-05) (0.000000e+00 0.000000e+00 0.000000e+00)) ((-4.517266e+00 1.732239e+00 -2.607465e-02) (1.657960e-02 4.801369e-02 -2.006195e-04) (0.000000e+00 0.000000e+00 0.000000e+00))
0.00403      	((3.535312e-01 9.230518e-01 1.097554e-01) (9.765791e-03 -3.382603e-03 1.270299e-05) (0.000000e+00 0.000000e+00 0.000000e+00)) ((-4.516746e+00 1.731567e+00 -2.606368e-02) (1.656473e-02 4.799140e-02 -2.005695e-04) (0.000000e+00 0.000000e+00 0.000000e+00))
0.0040325    	((3.534378e-01 9.230126e-01 1.097538e-01) (9.761215e-03 -3.379601e-03 1.368132e-05) (0.000000e+00 0.000000e+00 0.000000e+00)) ((-4.516570e+00 1.731115e+00 -2.605460e-02) (1.655004e-02 4.796898e-02 -2.005173e-04) (0.000000e+00 0.000000e+00 0.000000e+00))
0.004035     	((3.533752e-01 9.230162e-01 1.097567e-01) (9.756615e-03 -3.376631e-03 1.465080e-05) (0.000000e+00 0.000000e+00 0.000000e+00)) ((-4.516601e+00 1.730812e+00 -2.604696e-02) (1.653549e-02 4.794645e-02 -2.004630e-04) (0.000000e+00 0.000000e+00 0.000000e+00))
0.0040375    	((3.533033e-01 9.229955e-01 1.097586e-01) (9.751999e-03 -3.373687e-03 1.561080e-05) (0.000000e+00 0.000000e+00 0.000000e+00)) ((-4.516513e+00 1.730464e+00 -2.603891e-02) (1.652108e-02 4.792383e-02 -2.004071e-04) (0.000000e+00 0.000000e+00 0.000000e+00))
0.00404      	((3.532373e-01 9.229812e-01 1.097641e-01) (9.747366e-03 -3.370769e-03 1.656441e-05) (0.000000e+00 0.000000e+00 0.000000e+00)) ((-4.516453e+00 1.730145e+00 -2.603310e-02) (1.650678e-02 4.790113e-02 -2.003497e-04) (0.000000e+00 0.000000e+00 0.000000e+00))
0.0040425    	((3.531711e-01 9.229697e-01 1.097719e-01) (9.742722e-03 -3.367872e-03 1.751067e-05) (0.000000e+00 0.000000e+00 0.000000e+00)) ((-4.516408e+00 1.729824e+00 -2.602804e-02) (1.649259e-02 4.787838e-02 -2.002911e-04) (0.000000e+00 0.000000e+00 0.000000e+00))
0.004045     	((3.531138e-01 9.229651e-01 1.097785e-01) (9.738067e-03 -3.364995e-03 1.845183e-05) (0.000000e+00 0.000000e+00 0.000000e+00)) ((-4.516391e+00 1.729544e+00 -2.602685e-02) (1.647850e-02 4.785558e-02 -2.002315e-04) (0.000000e+00 0.000000e+00 0.000000e+00))
0.0040475    	((3.530621e-01 9.229744e-01 1.097856e-01) (9.733404e-03 -3.362136e-03 1.938686e-05) (0.000000e+00 0.000000e+00 0.000000e+00)) ((-4.516442e+00 1.729291e+00 -2.602646e-02) (1.646450e-02 4.783274e-02 -2.001710e-04) (0.000000e+00 0.000000e+00 0.000000e+00))
0.00405      	((3.530128e-01 9.229754e-01 1.097915e-01) (9.728734e-03 -3.359293e-03 2.031852e-05) (0.000000e+00 0.000000e+00 0.000000e+00)) ((-4.516453e+00 1.729051e+00 -2.602398e-02) (1.645057e-02 4.780986e-02 -2.001098e-04) (0.000000e+00 0.000000e+00 0.000000e+00))
0.0040525    	((3.529588e-01 9.229670e-01 1.098025e-01) (9.724059e-03 -3.356464e-03 2.124533e-05) (0.000000e+00 0.000000e+00 0.000000e+00)) ((-4.516418e+00 1.728788e+00 -2.602254e-02) (1.643672e-02 4.778696e-02 -2.000480e-04) (0.000000e+00 0.000000e+00 0.000000e+00))
0.004055     	((3.529102e-01 9.229583e-01 1.098110e-01) (9.719379e-03 -3.353650e-03 2.216924e-05) (0.000000e+00 0.000000e+00 0.000000e+00)) ((-4.516380e+00 1.728551e+00 -2.602099e-02) (1.642293e-02 4.776403e-02 -1.999857e-04) (0.000000e+00 0.000000e+00 0.000000e+00))
0.0040575    	((3.528992e-01 9.230127e-01 1.098242e-01) (9.714697e-03 -3.350846e-03 2.308911e-05) (0.000000e+00 0.000000e+00 0.000000e+00)) ((-4.516653e+00 1.728499e+00 -2.601912e-02) (1.640920e-02 4.774110e-02 -1.999230e-04) (0.000000e+00 0.000000e+00 0.000000e+00))
0.00406      	((3.528501e-01 9.230149e-01 1.098361e-01) (9.710011e-03 -3.348053e-03 2.400643e-05) (0.000000e+00 0.000000e+00 0.000000e+00)) ((-4.516665e+00 1.728258e+00 -2.602112e-02) (1.639552e-02 4.771814e-02 -1.998600e-04) (0.000000e+00 0.000000e+00 0.000000e+00))
0.0040625    	((3.528097e-01 9.230206e-01 1.098480e-01) (9.705323e-03 -3.345269e-03 2.491994e-05) (0.000000e+00 0.000000e+00 0.000000e+00)) ((-4.516698e+00 1.728061e+00 -2.602052e-02) (1.638188e-02 4.769518e-02 -1.997968e-04) (0.000000e+00 0.000000e+00 0.000000e+00))
0.004065     	((3.527904e-01 9.230566e-01 1.098577e-01) (9.700633e-03 -3.342495e-03 2.583177e-05) (0.000000e+00 0.000000e+00 0.000000e+00)) ((-4.516878e+00 1.727967e+00 -2.602058e-02) (1.636829e-02 4.767221e-02 -1.997332e-04) (0.000000e+00 0.000000e+00 0.000000e+00))
0.0040675    	((3.527781e-01 9.231009e-01 1.098712e-01) (9.695944e-03 -3.339729e-03 2.674034e-05) (0.000000e+00 0.000000e+00 0.000000e+00)) ((-4.517096e+00 1.727907e+00 -2.602235e-02) (1.635474e-02 4.764924e-02 -1.996695e-04) (0.000000e+00 0.000000e+00 0.000000e+00))
0.00407      	((3.527763e-01 9.231617e-01 1.098823e-01) (9.691254e-03 -3.336971e-03 2.764795e-05) (0.000000e+00 0.000000e+00 0.000000e+00)) ((-4.517398e+00 1.727899e+00 -2.602278e-02) (1.634123e-02 4.762627e-02 -1.996057e-04) (0.000000e+00 0.000000e+00 0.000000e+00))
0.0040725    	((3.527605e-01 9.231984e-01 1.098966e-01) (9.686564e-03 -3.334218e-03 2.855267e-05) (0.000000e+00 0.000000e+00 0.000000e+00)) ((-4.517582e+00 1.727822e+00 -2.602278e-02) (1.632775e-02 4.760329e-02 -1.995418e-04) (0.000000e+00 0.000000e+00 0.000000e+00))
0.004075     	((3.527536e-01 9.232436e-01 1.099056e-01) (9.681873e-03 -3.331474e-03 2.945647e-05) (0.000000e+00 0.000000e+00 0.000000e+00)) ((-4.517806e+00 1.727789e+00 -2.602287e-02) (1.631431e-02 4.758032e-02 -1.994777e-04) (0.000000e+00 0.000000e+00 0.000000e+00))
0.0040775    	((3.527253e-01 9.232655e-01 1.099186e-01) (9.677184e-03 -3.328736e-03 3.035709e-05) (0.000000e+00 0.000000e+00 0.000000e+00)) ((-4.517915e+00 1.727650e+00 -2.602489e-02) (1.630090e-02 4.755735e-02 -1.994137e-04) (0.000000e+00 0.000000e+00 0.000000e+00))
0.00408      	((3.526804e-01 9.232567e-01 1.099333e-01) (9.672495e-03 -3.326004e-03 3.125717e-05) (0.000000e+00 0.000000e+00 0.000000e+00)) ((-4.517872e+00 1.727428e+00 -2.602841e-02) (1.628753e-02 4.753438e-02 -1.993495e-04) (0.000000e+00 0.000000e+00 0.000000e+00))
0.0040825    	((3.526720e-01 9.233019e-01 1.099476e-01) (9.667810e-03 -3.323279e-03 3.215463e-05) (0.000000e+00 0.000000e+00 0.000000e+00)) ((-4.518094e+00 1.727387e+00 -2.603071e-02) (1.627418e-02 4.751143e-02 -1.992853e-04) (0.000000e+00 0.000000e+00 0.000000e+00))
0.004085     	((3.526492e-01 9.233168e-01 1.099603e-01) (9.663124e-03 -3.320559e-03 3.305141e-05) (0.000000e+00 0.000000e+00 0.000000e+00)) ((-4.518168e+00 1.727275e+00 -2.603221e-02) (1.626085e-02 4.748848e-02 -1.992212e-04) (0.000000e+00 0.000000e+00 0.000000e+00))
0.0040875    	((3.526365e-01 9.233551e-01 1.099743e-01) (9.658443e-03 -3.317843e-03 3.394576e-05) (0.000000e+00 0.000000e+00 0.000000e+00)) ((-4.518357e+00 1.727212e+00 -2.603428e-02) (1.624756e-02 4.746555e-02 -1.991571e-04) (0.000000e+00 0.000000e+00 0.000000e+00))
0.00409      	((3.526469e-01 9.234272e-01 1.099845e-01) (9.653762e-03 -3.315133e-03 3.483987e-05) (0.000000e+00 0.000000e+00 0.000000e+00)) ((-4.518713e+00 1.727264e+00 -2.603485e-02) (1.623429e-02 4.744262e-02 -1.990931e-04) (0.000000e+00 0.000000e+00 0.000000e+00))
0.0040925    	((3.526516e-01 9.234924e-01 1.099975e-01) (9.649085e-03 -3.312428e-03 3.573159e-05) (0.000000e+00 0.000000e+00 0.000000e+00)) ((-4.519032e+00 1.727286e+00 -2.603806e-02) (1.622104e-02 4.741971e-02 -1.990290e-04) (0.000000e+00 0.000000e+00 0.000000e+00))
0.004095     	((3.526166e-01 9.234987e-01 1.100099e-01) (9.644409e-03 -3.309728e-03 3.662289e-05) (0.000000e+00 0.000000e+00 0.000000e+00)) ((-4.519063e+00 1.727114e+00 -2.604014e-02) (1.620781e-02 4.739681e-02 -1.989651e-04) (0.000000e+00 0.000000e+00 0.000000e+00))
0.0040975    	((3.525714e-01 9.234764e-01 1.100248e-01) (9.639738e-03 -3.307032e-03 3.751144e-05) (0.000000e+00 0.000000e+00 0.000000e+00)) ((-4.518955e+00 1.726892e+00 -2.604210e-02) (1.619461e-02 4.737393e-02 -1.989012e-04) (0.000000e+00 0.000000e+00 0.000000e+00))
0.0041       	((3.525923e-01 9.235651e-01 1.100354e-01) (9.635067e-03 -3.304341e-03 3.839988e-05) (0.000000e+00 0.000000e+00 0.000000e+00)) ((-4.519389e+00 1.726993e+00 -2.604525e-02) (1.618143e-02 4.735105e-02 -1.988373e-04) (0.000000e+00 0.000000e+00 0.000000e+00))
0.0041025    	((3.525910e-01 9.236161e-01 1.100488e-01) (9.630401e-03 -3.301653e-03 3.928628e-05) (0.000000e+00 0.000000e+00 0.000000e+00)) ((-4.519640e+00 1.726986e+00 -2.604707e-02) (1.616827e-02 4.732819e-02 -1.987735e-04) (0.000000e+00 0.000000e+00 0.000000e+00))
0.004105     	((3.525624e-01 9.236188e-01 1.100632e-01) (9.625735e-03 -3.298969e-03 4.017253e-05) (0.000000e+00 0.000000e+00 0.000000e+00)) ((-4.519654e+00 1.726846e+00 -2.604885e-02) (1.615513e-02 4.730534e-02 -1.987098e-04) (0.000000e+00 0.000000e+00 0.000000e+00))
0.0041075    	((3.525533e-01 9.236641e-01 1.100797e-01) (9.621075e-03 -3.296287e-03 4.105658e-05) (0.000000e+00 0.000000e+00 0.000000e+00)) ((-4.519875e+00 1.726801e+00 -2.605268e-02) (1.614200e-02 4.728251e-02 -1.986463e-04) (0.000000e+00 0.000000e+00 0.000000e+00))
0.00411      	((3.525129e-01 9.236474e-01 1.100870e-01) (9.616416e-03 -3.293609e-03 4.194044e-05) (0.000000e+00 0.000000e+00 0.000000e+00)) ((-4.519794e+00 1.726602e+00 -2.605488e-02) (1.612889e-02 4.725969e-02 -1.985828e-04) (0.000000e+00 0.000000e+00 0.000000e+00))
0.0041125    	((3.525351e-01 9.237269e-01 1.100980e-01) (9.611761e-03 -3.290934e-03 4.282254e-05) (0.000000e+00 0.000000e+00 0.000000e+00)) ((-4.520186e+00 1.726711e+00 -2.605565e-02) (1.611579e-02 4.723689e-02 -1.985195e-04) (0.000000e+00 0.000000e+00 0.000000e+00))
0.004115     	((3.525253e-01 9.237631e-01 1.101120e-01) (9.607109e-03 -3.288263e-03 4.370431e-05) (0.000000e+00 0.000000e+00 0.000000e+00)) ((-4.520362e+00 1.726662e+00 -2.605901e-02) (1.610271e-02 4.721411e-02 -1.984563e-04) (0.000000e+00 0.000000e+00 0.000000e+00))
0.0041175    	((3.525391e-01 9.238363e-01 1.101265e-01) (9.602462e-03 -3.285595e-03 4.458382e-05) (0.000000e+00 0.000000e+00 0.000000e+00)) ((-4.520721e+00 1.726728e+00 -2.606185e-02) (1.608964e-02 4.719134e-02 -1.983932e-04) (0.000000e+00 0.000000e+00 0.000000e+00))
0.00412      	((3.525400e-01 9.238897e-01 1.101384e-01) (9.597818e-03 -3.282930e-03 4.546322e-05) (0.000000e+00 0.000000e+00 0.000000e+00)) ((-4.520983e+00 1.726733e+00 -2.606406e-02) (1.607659e-02 4.716859e-02 -1.983302e-04) (0.000000e+00 0.000000e+00 0.000000e+00))
0.0041225    	((3.525325e-01 9.239248e-01 1.101506e-01) (9.593178e-03 -3.280269e-03 4.634058e-05) (0.000000e+00 0.000000e+00 0.000000e+00)) ((-4.521157e+00 1.726696e+00 -2.606519e-02) (1.606357e-02 4.714587e-02 -1.982672e-04) (0.000000e+00 0.000000e+00 0.000000e+00))
0.004125     	((3.525079e-01 9.239379e-01 1.101642e-01) (9.588540e-03 -3.277612e-03 4.721784e-05) (0.000000e+00 0.000000e+00 0.000000e+00)) ((-4.521221e+00 1.726575e+00 -2.606873e-02) (1.605056e-02 4.712315e-02 -1.982042e-04) (0.000000e+00 0.000000e+00 0.000000e+00))
0.0041275    	((3.525034e-01 9.239815e-01 1.101789e-01) (9.583907e-03 -3.274958e-03 4.809302e-05) (0.000000e+00 0.000000e+00 0.000000e+00)) ((-4.521434e+00 1.726552e+00 -2.607095e-02) (1.603757e-02 4.710045e-02 -1.981414e-04) (0.000000e+00 0.000000e+00 0.000000e+00))
0.00413      	((3.524840e-01 9.240001e-01 1.101895e-01) (9.579276e-03 -3.272309e-03 4.896804e-05) (0.000000e+00 0.000000e+00 0.000000e+00)) ((-4.521524e+00 1.726456e+00 -2.607438e-02) (1.602459e-02 4.707777e-02 -1.980786e-04) (0.000000e+00 0.000000e+00 0.000000e+00))
0.0041325    	((3.524779e-01 9.240420e-01 1.102047e-01) (9.574651e-03 -3.269661e-03 4.984114e-05) (0.000000e+00 0.000000e+00 0.000000e+00)) ((-4.521729e+00 1.726425e+00 -2.607785e-02) (1.601163e-02 4.705512e-02 -1.980160e-04) (0.000000e+00 0.000000e+00 0.000000e+00))
0.004135     	((3.524822e-01 9.240921e-01 1.102162e-01) (9.570028e-03 -3.267017e-03 5.071439e-05) (0.000000e+00 0.000000e+00 0.000000e+00)) ((-4.521975e+00 1.726445e+00 -2.607908e-02) (1.599868e-02 4.703247e-02 -1.979535e-04) (0.000000e+00 0.000000e+00 0.000000e+00))
0.0041375    	((3.524965e-01 9.241575e-01 1.102289e-01) (9.565410e-03 -3.264374e-03 5.158584e-05) (0.000000e+00 0.000000e+00 0.000000e+00)) ((-4.522296e+00 1.726515e+00 -2.608133e-02) (1.598574e-02 4.700985e-02 -1.978911e-04) (0.000000e+00 0.000000e+00 0.000000e+00))
0.00414      	((3.525055e-01 9.242266e-01 1.102435e-01) (9.560795e-03 -3.261733e-03 5.245698e-05) (0.000000e+00 0.000000e+00 0.000000e+00)) ((-4.522633e+00 1.726558e+00 -2.608577e-02) (1.597282e-02 4.698725e-02 -1.978289e-04) (0.000000e+00 0.000000e+00 0.000000e+00))
0.0041425    	((3.524760e-01 9.242152e-01 1.102552e-01) (9.556186e-03 -3.259095e-03 5.332638e-05) (0.000000e+00 0.000000e+00 0.000000e+00)) ((-4.522579e+00 1.726413e+00 -2.608677e-02) (1.595990e-02 4.696467e-02 -1.977668e-04) (0.000000e+00 0.000000e+00 0.000000e+00))
0.004145     	((3.524877e-01 9.242810e-01 1.102673e-01) (9.551581e-03 -3.256460e-03 5.419567e-05) (0.000000e+00 0.000000e+00 0.000000e+00)) ((-4.522901e+00 1.726470e+00 -2.608970e-02) (1.594700e-02 4.694211e-02 -1.977049e-04) (0.000000e+00 0.000000e+00 0.000000e+00))
0.0041475    	((3.524811e-01 9.243179e-01 1.102795e-01) (9.546981e-03 -3.253827e-03 5.506321e-05) (0.000000e+00 0.000000e+00 0.000000e+00)) ((-4.523082e+00 1.726436e+00 -2.609260e-02) (1.593411e-02 4.691958e-02 -1.976431e-04) (0.000000e+00 0.000000e+00 0.000000e+00))
0.00415      	((3.524797e-01 9.243643e-01 1.102930e-01) (9.542385e-03 -3.251197e-03 5.593030e-05) (0.000000e+00 0.000000e+00 0.000000e+00)) ((-4.523308e+00 1.726429e+00 -2.609544e-02) (1.592124e-02 4.689706e-02 -1.975814e-04) (0.000000e+00 0.000000e+00 0.000000e+00))
0.0041525    	((3.524597e-01 9.243810e-01 1.103090e-01) (9.537793e-03 -3.248570e-03 5.679600e-05) (0.000000e+00 0.000000e+00 0.000000e+00)) ((-4.523389e+00 1.726329e+00 -2.609964e-02) (1.590837e-02 4.687457e-02 -1.975198e-04) (0.000000e+00 0.000000e+00 0.000000e+00))
0.004155     	((3.524707e-01 9.244425e-01 1.103224e-01) (9.533205e-03 -3.245946e-03 5.766145e-05) (0.000000e+00 0.000000e+00 0.000000e+00)) ((-4.523689e+00 1.726382e+00 -2.610259e-02) (1.589553e-02 4.685209e-02 -1.974583e-04) (0.000000e+00 0.000000e+00 0.000000e+00))
0.0041575    	((3.524584e-01 9.244698e-01 1.103363e-01) (9.528622e-03 -3.243324e-03 5.852530e-05) (0.000000e+00 0.000000e+00 0.000000e+00)) ((-4.523822e+00 1.726321e+00 -2.610542e-02) (1.588269e-02 4.682964e-02 -1.973969e-04) (0.000000e+00 0.000000e+00 0.000000e+00))
0.00416      	((3.524391e-01 9.244843e-01 1.103499e-01) (9.524042e-03 -3.240707e-03 5.938870e-05) (0.000000e+00 0.000000e+00 0.000000e+00)) ((-4.523893e+00 1.726225e+00 -2.610808e-02) (1.586988e-02 4.680721e-02 -1.973355e-04) (0.000000e+00 0.000000e+00 0.000000e+00))
0.0041625    	((3.524367e-01 9.245226e-01 1.103625e-01) (9.519468e-03 -3.238091e-03 6.025032e-05) (0.000000e+00 0.000000e+00 0.000000e+00)) ((-4.524082e+00 1.726214e+00 -2.610986e-02) (1.585708e-02 4.678480e-02 -1.972743e-04) (0.000000e+00 0.000000e+00 0.000000e+00))
0.004165     	((3.524528e-01 9.245896e-01 1.103727e-01) (9.514897e-03 -3.235480e-03 6.111135e-05) (0.000000e+00 0.000000e+00 0.000000e+00)) ((-4.524411e+00 1.726292e+00 -2.611124e-02) (1.584429e-02 4.676241e-02 -1.972131e-04) (0.000000e+00 0.000000e+00 0.000000e+00))
0.0041675    	((3.524438e-01 9.246140e-01 1.103818e-01) (9.510331e-03 -3.232871e-03 6.197066e-05) (0.000000e+00 0.000000e+00 0.000000e+00)) ((-4.524532e+00 1.726248e+00 -2.611221e-02) (1.583152e-02 4.674005e-02 -1.971520e-04) (0.000000e+00 0.000000e+00 0.000000e+00))
0.00417      	((3.524318e-01 9.246434e-01 1.103946e-01) (9.505769e-03 -3.230265e-03 6.282971e-05) (0.000000e+00 0.000000e+00 0.000000e+00)) ((-4.524676e+00 1.726188e+00 -2.611580e-02) (1.581876e-02 4.671770e-02 -1.970910e-04) (0.000000e+00 0.000000e+00 0.000000e+00))
0.0041725    	((3.524554e-01 9.247246e-01 1.104025e-01) (9.501212e-03 -3.227661e-03 6.368751e-05) (0.000000e+00 0.000000e+00 0.000000e+00)) ((-4.525076e+00 1.726304e+00 -2.611680e-02) (1.580602e-02 4.669538e-02 -1.970301e-04) (0.000000e+00 0.000000e+00 0.000000e+00))
0.004175     	((3.524229e-01 9.247174e-01 1.104140e-01) (9.496659e-03 -3.225061e-03 6.454455e-05) (0.000000e+00 0.000000e+00 0.000000e+00)) ((-4.525040e+00 1.726144e+00 -2.611969e-02) (1.579328e-02 4.667307e-02 -1.969693e-04) (0.000000e+00 0.000000e+00 0.000000e+00))
0.0041775    	((3.524251e-01 9.247582e-01 1.104264e-01) (9.492111e-03 -3.222462e-03 6.539985e-05) (0.000000e+00 0.000000e+00 0.000000e+00)) ((-4.525240e+00 1.726154e+00 -2.612290e-02) (1.578057e-02 4.665080e-02 -1.969086e-04) (0.000000e+00 0.000000e+00 0.000000e+00))
0.00418      	((3.524222e-01 9.247990e-01 1.104389e-01) (9.487567e-03 -3.219867e-03 6.625441e-05) (0.000000e+00 0.000000e+00 0.000000e+00)) ((-4.525439e+00 1.726139e+00 -2.612584e-02) (1.576786e-02 4.662854e-02 -1.968479e-04) (0.000000e+00 0.000000e+00 0.000000e+00))
0.0041825    	((3.524485e-01 9.248853e-01 1.104507e-01) (9.483028e-03 -3.217273e-03 6.710742e-05) (0.000000e+00 0.000000e+00 0.000000e+00)) ((-4.525863e+00 1.726268e+00 -2.612792e-02) (1.575516e-02 4.660630e-02 -1.967874e-04) (0.000000e+00 0.000000e+00 0.000000e+00))
0.004185     	((3.524183e-01 9.248905e-01 1.104636e-01) (9.478493e-03 -3.214681e-03 6.796021e-05) (0.000000e+00 0.000000e+00 0.000000e+00)) ((-4.525885e+00 1.726117e+00 -2.613379e-02) (1.574248e-02 4.658408e-02 -1.967270e-04) (0.000000e+00 0.000000e+00 0.000000e+00))
0.0041875    	((3.524037e-01 9.249121e-01 1.104732e-01) (9.473961e-03 -3.212091e-03 6.881167e-05) (0.000000e+00 0.000000e+00 0.000000e+00)) ((-4.525991e+00 1.726044e+00 -2.613671e-02) (1.572979e-02 4.656188e-02 -1.966668e-04) (0.000000e+00 0.000000e+00 0.000000e+00))
0.00419      	((3.524196e-01 9.249725e-01 1.104866e-01) (9.469434e-03 -3.209501e-03 6.966302e-05) (0.000000e+00 0.000000e+00 0.000000e+00)) ((-4.526287e+00 1.726122e+00 -2.613837e-02) (1.571712e-02 4.653970e-02 -1.966068e-04) (0.000000e+00 0.000000e+00 0.000000e+00))
0.0041925    	((3.524286e-01 9.250315e-01 1.104986e-01) (9.464911e-03 -3.206912e-03 7.051327e-05) (0.000000e+00 0.000000e+00 0.000000e+00)) ((-4.526578e+00 1.726166e+00 -2.613963e-02) (1.570444e-02 4.651755e-02 -1.965469e-04) (0.000000e+00 0.000000e+00 0.000000e+00))
0.004195     	((3.524083e-01 9.250404e-01 1.105077e-01) (9.460391e-03 -3.204326e-03 7.136313e-05) (0.000000e+00 0.000000e+00 0.000000e+00)) ((-4.526622e+00 1.726066e+00 -2.614229e-02) (1.569178e-02 4.649541e-02 -1.964871e-04) (0.000000e+00 0.000000e+00 0.000000e+00))
0.0041975    	((3.524146e-01 9.250934e-01 1.105202e-01) (9.455877e-03 -3.201743e-03 7.221154e-05) (0.000000e+00 0.000000e+00 0.000000e+00)) ((-4.526881e+00 1.726096e+00 -2.614551e-02) (1.567914e-02 4.647329e-02 -1.964273e-04) (0.000000e+00 0.000000e+00 0.000000e+00))
0.0042       	((3.524484e-01 9.251891e-01 1.105324e-01) (9.451366e-03 -3.199162e-03 7.305929e-05) (0.000000e+00 0.000000e+00 0.000000e+00)) ((-4.527349e+00 1.726261e+00 -2.614886e-02) (1.566651e-02 4.645119e-02 -1.963676e-04) (0.000000e+00 0.000000e+00 0.000000e+00))
0.0042025    	((3.524524e-01 9.252370e-01 1.105457e-01) (9.446860e-03 -3.196583e-03 7.390523e-05) (0.000000e+00 0.000000e+00 0.000000e+00)) ((-4.527583e+00 1.726279e+00 -2.615241e-02) (1.565388e-02 4.642912e-02 -1.963080e-04) (0.000000e+00 0.000000e+00 0.000000e+00))
0.004205     	((3.524544e-01 9.252839e-01 1.105582e-01) (9.442358e-03 -3.194006e-03 7.475064e-05) (0.000000e+00 0.000000e+00 0.000000e+00)) ((-4.527813e+00 1.726288e+00 -2.615483e-02) (1.564127e-02 4.640707e-02 -1.962486e-04) (0.000000e+00 0.000000e+00 0.000000e+00))
0.0042075    	((3.524355e-01 9.252968e-01 1.105682e-01) (9.437862e-03 -3.191430e-03 7.559475e-05) (0.000000e+00 0.000000e+00 0.000000e+00)) ((-4.527875e+00 1.726194e+00 -2.615827e-02) (1.562866e-02 4.638504e-02 -1.961893e-04) (0.000000e+00 0.000000e+00 0.000000e+00))
0.00421      	((3.524288e-01 9.253290e-01 1.105776e-01) (9.433370e-03 -3.188855e-03 7.643861e-05) (0.000000e+00 0.000000e+00 0.000000e+00)) ((-4.528034e+00 1.726161e+00 -2.615995e-02) (1.561605e-02 4.636304e-02 -1.961302e-04) (0.000000e+00 0.000000e+00 0.000000e+00))
0.0042125    	((3.524132e-01 9.253519e-01 1.105912e-01) (9.428884e-03 -3.186283e-03 7.728105e-05) (0.000000e+00 0.000000e+00 0.000000e+00)) ((-4.528146e+00 1.726084e+00 -2.616319e-02) (1.560347e-02 4.634106e-02 -1.960712e-04) (0.000000e+00 0.000000e+00 0.000000e+00))
0.004215     	((3.524055e-01 9.253793e-01 1.106014e-01) (9.424401e-03 -3.183715e-03 7.812289e-05) (0.000000e+00 0.000000e+00 0.000000e+00)) ((-4.528281e+00 1.726046e+00 -2.616579e-02) (1.559089e-02 4.631910e-02 -1.960122e-04) (0.000000e+00 0.000000e+00 0.000000e+00))
0.0042175    	((3.524265e-01 9.254559e-01 1.106126e-01) (9.419924e-03 -3.181149e-03 7.896280e-05) (0.000000e+00 0.000000e+00 0.000000e+00)) ((-4.528655e+00 1.726147e+00 -2.616903e-02) (1.557833e-02 4.629717e-02 -1.959534e-04) (0.000000e+00 0.000000e+00 0.000000e+00))
0.00422      	((3.524332e-01 9.255098e-01 1.106243e-01) (9.415452e-03 -3.178586e-03 7.980178e-05) (0.000000e+00 0.000000e+00 0.000000e+00)) ((-4.528920e+00 1.726180e+00 -2.617147e-02) (1.556579e-02 4.627526e-02 -1.958946e-04) (0.000000e+00 0.000000e+00 0.000000e+00))
0.0042225    	((3.524196e-01 9.255312e-01 1.106383e-01) (9.410985e-03 -3.176026e-03 8.063920e-05) (0.000000e+00 0.000000e+00 0.000000e+00)) ((-4.529023e+00 1.726112e+00 -2.617470e-02) (1.555326e-02 4.625337e-02 -1.958358e-04) (0.000000e+00 0.000000e+00 0.000000e+00))
0.004225     	((3.523744e-01 9.255033e-01 1.106517e-01) (9.406521e-03 -3.173469e-03 8.147637e-05) (0.000000e+00 0.000000e+00 0.000000e+00)) ((-4.528884e+00 1.725888e+00 -2.617994e-02) (1.554074e-02 4.623150e-02 -1.957772e-04) (0.000000e+00 0.000000e+00 0.000000e+00))
0.0042275    	((3.523887e-01 9.255628e-01 1.106625e-01) (9.402063e-03 -3.170913e-03 8.231206e-05) (0.000000e+00 0.000000e+00 0.000000e+00)) ((-4.529176e+00 1.725958e+00 -2.618163e-02) (1.552823e-02 4.620966e-02 -1.957187e-04) (0.000000e+00 0.000000e+00 0.000000e+00))
0.00423      	((3.524070e-01 9.256301e-01 1.106719e-01) (9.397609e-03 -3.168360e-03 8.314733e-05) (0.000000e+00 0.000000e+00 0.000000e+00)) ((-4.529507e+00 1.726047e+00 -2.618345e-02) (1.551573e-02 4.618784e-02 -1.956603e-04) (0.000000e+00 0.000000e+00 0.000000e+00))
0.0042325    	((3.524081e-01 9.256762e-01 1.106841e-01) (9.393160e-03 -3.165808e-03 8.398109e-05) (0.000000e+00 0.000000e+00 0.000000e+00)) ((-4.529732e+00 1.726052e+00 -2.618619e-02) (1.550324e-02 4.616605e-02 -1.956020e-04) (0.000000e+00 0.000000e+00 0.000000e+00))
0.004235     	((3.524162e-01 9.257263e-01 1.106943e-01) (9.388716e-03 -3.163260e-03 8.481467e-05) (0.000000e+00 0.000000e+00 0.000000e+00)) ((-4.529978e+00 1.726091e+00 -2.618808e-02) (1.549076e-02 4.614427e-02 -1.955437e-04) (0.000000e+00 0.000000e+00 0.000000e+00))
0.0042375    	((3.524165e-01 9.257677e-01 1.107048e-01) (9.384276e-03 -3.160713e-03 8.564704e-05) (0.000000e+00 0.000000e+00 0.000000e+00)) ((-4.530181e+00 1.726091e+00 -2.619163e-02) (1.547830e-02 4.612252e-02 -1.954856e-04) (0.000000e+00 0.000000e+00 0.000000e+00))
0.00424      	((3.524199e-01 9.258080e-01 1.107161e-01) (9.379841e-03 -3.158168e-03 8.647944e-05) (0.000000e+00 0.000000e+00 0.000000e+00)) ((-4.530379e+00 1.726108e+00 -2.619358e-02) (1.546584e-02 4.610080e-02 -1.954276e-04) (0.000000e+00 0.000000e+00 0.000000e+00))
0.0042425    	((3.524055e-01 9.258271e-01 1.107272e-01) (9.375411e-03 -3.155625e-03 8.731062e-05) (0.000000e+00 0.000000e+00 0.000000e+00)) ((-4.530472e+00 1.726036e+00 -2.619666e-02) (1.545340e-02 4.607909e-02 -1.953696e-04) (0.000000e+00 0.000000e+00 0.000000e+00))
0.004245     	((3.524005e-01 9.258600e-01 1.107375e-01) (9.370984e-03 -3.153086e-03 8.814151e-05) (0.000000e+00 0.000000e+00 0.000000e+00)) ((-4.530633e+00 1.726011e+00 -2.619987e-02) (1.544096e-02 4.605741e-02 -1.953118e-04) (0.000000e+00 0.000000e+00 0.000000e+00))
0.0042475    	((3.524121e-01 9.259218e-01 1.107495e-01) (9.366564e-03 -3.150549e-03 8.897096e-05) (0.000000e+00 0.000000e+00 0.000000e+00)) ((-4.530935e+00 1.726066e+00 -2.620304e-02) (1.542855e-02 4.603575e-02 -1.952540e-04) (0.000000e+00 0.000000e+00 0.000000e+00))
0.00425      	((3.523920e-01 9.259339e-01 1.107617e-01) (9.362147e-03 -3.148014e-03 8.980038e-05) (0.000000e+00 0.000000e+00 0.000000e+00)) ((-4.530994e+00 1.725967e+00 -2.620645e-02) (1.541614e-02 4.601411e-02 -1.951962e-04) (0.000000e+00 0.000000e+00 0.000000e+00))
0.0042525    	((3.523849e-01 9.259685e-01 1.107744e-01) (9.357735e-03 -3.145482e-03 9.062824e-05) (0.000000e+00 0.000000e+00 0.000000e+00)) ((-4.531162e+00 1.725931e+00 -2.620971e-02) (1.540374e-02 4.599250e-02 -1.951386e-04) (0.000000e+00 0.000000e+00 0.000000e+00))
0.004255     	((3.524060e-01 9.260447e-01 1.107866e-01) (9.353328e-03 -3.142952e-03 9.145622e-05) (0.000000e+00 0.000000e+00 0.000000e+00)) ((-4.531535e+00 1.726034e+00 -2.621288e-02) (1.539136e-02 4.597090e-02 -1.950811e-04) (0.000000e+00 0.000000e+00 0.000000e+00))
0.0042575    	((3.524215e-01 9.261096e-01 1.107979e-01) (9.348926e-03 -3.140423e-03 9.228263e-05) (0.000000e+00 0.000000e+00 0.000000e+00)) ((-4.531853e+00 1.726109e+00 -2.621620e-02) (1.537898e-02 4.594934e-02 -1.950237e-04) (0.000000e+00 0.000000e+00 0.000000e+00))
0.00426      	((3.523816e-01 9.260838e-01 1.108111e-01) (9.344528e-03 -3.137896e-03 9.310868e-05) (0.000000e+00 0.000000e+00 0.000000e+00)) ((-4.531726e+00 1.725912e+00 -2.621931e-02) (1.536661e-02 4.592779e-02 -1.949664e-04) (0.000000e+00 0.000000e+00 0.000000e+00))
0.0042625    	((3.523973e-01 9.261434e-01 1.108238e-01) (9.340135e-03 -3.135372e-03 9.393341e-05) (0.000000e+00 0.000000e+00 0.000000e+00)) ((-4.532018e+00 1.725989e+00 -2.622163e-02) (1.535425e-02 4.590627e-02 -1.949092e-04) (0.000000e+00 0.000000e+00 0.000000e+00))
0.004265     	((3.523687e-01 9.261424e-01 1.108338e-01) (9.335745e-03 -3.132851e-03 9.475822e-05) (0.000000e+00 0.000000e+00 0.000000e+00)) ((-4.532011e+00 1.725846e+00 -2.622540e-02) (1.534192e-02 4.588476e-02 -1.948519e-04) (0.000000e+00 0.000000e+00 0.000000e+00))
0.0042675    	((3.523816e-01 9.262003e-01 1.108432e-01) (9.331360e-03 -3.130333e-03 9.558193e-05) (0.000000e+00 0.000000e+00 0.000000e+00)) ((-4.532296e+00 1.725909e+00 -2.622751e-02) (1.532959e-02 4.586328e-02 -1.947946e-04) (0.000000e+00 0.000000e+00 0.000000e+00))
0.00427      	((3.524314e-01 9.263201e-01 1.108531e-01) (9.326979e-03 -3.127817e-03 9.640560e-05) (0.000000e+00 0.000000e+00 0.000000e+00)) ((-4.532883e+00 1.726153e+00 -2.622958e-02) (1.531727e-02 4.584181e-02 -1.947375e-04) (0.000000e+00 0.000000e+00 0.000000e+00))
0.0042725    	((3.524283e-01 9.263609e-01 1.108627e-01) (9.322603e-03 -3.125302e-03 9.722792e-05) (0.000000e+00 0.000000e+00 0.000000e+00)) ((-4.533083e+00 1.726137e+00 -2.623347e-02) (1.530496e-02 4.582037e-02 -1.946805e-04) (0.000000e+00 0.000000e+00 0.000000e+00))
0.004275     	((3.524064e-01 9.263642e-01 1.108729e-01) (9.318232e-03 -3.122787e-03 9.805050e-05) (0.000000e+00 0.000000e+00 0.000000e+00)) ((-4.533099e+00 1.726029e+00 -2.623576e-02) (1.529265e-02 4.579896e-02 -1.946237e-04) (0.000000e+00 0.000000e+00 0.000000e+00))
0.0042775    	((3.524133e-01 9.264159e-01 1.108860e-01) (9.313865e-03 -3.120273e-03 9.887207e-05) (0.000000e+00 0.000000e+00 0.000000e+00)) ((-4.533353e+00 1.726062e+00 -2.623799e-02) (1.528035e-02 4.577756e-02 -1.945671e-04) (0.000000e+00 0.000000e+00 0.000000e+00))