# Force          
# CofR           : (0.0000000000e+00 0.0000000000e+00 0.0000000000e+00)
#                
# Time           	(total_x total_y total_z)	(pressure_x pressure_y pressure_z)	(viscous_x viscous_y viscous_z)
4.901            	(-4.0103472413e-02 -2.0377804686e-02 3.6734967197e-01)	(-4.2053391898e-02 -2.2400400412e-02 3.6629383166e-01)	(1.9499194843e-03 2.0225957254e-03 1.0558403062e-03)
4.902            	(-4.0164917386e-02 -1.9971468776e-02 3.6695355182e-01)	(-4.2114647526e-02 -2.1995812153e-02 3.6590048794e-01)	(1.9497301396e-03 2.0243433762e-03 1.0530638867e-03)
4.903            	(-4.0166256406e-02 -1.9615235752e-02 3.6712937102e-01)	(-4.2115902655e-02 -2.1641282800e-02 3.6607909414e-01)	(1.9496462481e-03 2.0260470476e-03 1.0502768805e-03)
4.904            	(-4.0290932021e-02 -1.9197259801e-02 3.6711282900e-01)	(-4.2240081440e-02 -2.1225114826e-02 3.6606540545e-01)	(1.9491494193e-03 2.0278550247e-03 1.0474235518e-03)
4.905            	(-4.0669688140e-02 -1.8734786575e-02 3.6608162825e-01)	(-4.2617285908e-02 -2.0764255702e-02 3.6503719830e-01)	(1.9475977675e-03 2.0294691267e-03 1.0444299545e-03)
4.906            	(-4.0123926230e-02 -1.8505428451e-02 3.6782476212e-01)	(-4.2071617833e-02 -2.0536742031e-02 3.6678312063e-01)	(1.9476916029e-03 2.0313135801e-03 1.0416414908e-03)
4.907            	(-4.0227467981e-02 -1.8081531277e-02 3.6753284095e-01)	(-4.2175001810e-02 -2.0114692378e-02 3.6649401800e-01)	(1.9475338287e-03 2.0331611012e-03 1.0388229466e-03)
4.908            	(-4.0289126706e-02 -1.7737122480e-02 3.6797056611e-01)	(-4.2236317361e-02 -1.9772106328e-02 3.6693458742e-01)	(1.9471906553e-03 2.0349838479e-03 1.0359786905e-03)
4.909            	(-4.0341512217e-02 -1.7364425335e-02 3.6829964106e-01)	(-4.2288251488e-02 -1.9401251785e-02 3.6726644568e-01)	(1.9467392704e-03 2.0368264503e-03 1.0331953813e-03)
4.91             	(-4.0694338840e-02 -1.6923664931e-02 3.6597176717e-01)	(-4.2639567487e-02 -1.8961801240e-02 3.6494177410e-01)	(1.9452286470e-03 2.0381363094e-03 1.0299930655e-03)
4.911            	(-4.0997270284e-02 -1.5618347018e-02 3.5615030211e-01)	(-4.2939759487e-02 -1.7658057530e-02 3.5512456002e-01)	(1.9424892030e-03 2.0397105118e-03 1.0257420960e-03)
4.912            	(-4.0496010425e-02 -1.6462426129e-02 3.7276934483e-01)	(-4.2437841956e-02 -1.8504224926e-02 3.7174577993e-01)	(1.9418315318e-03 2.0417987969e-03 1.0235649015e-03)
4.913            	(-4.0410612368e-02 -1.5992347277e-02 3.7098768502e-01)	(-4.2352057276e-02 -1.8036072773e-02 3.6996657377e-01)	(1.9414449072e-03 2.0437254965e-03 1.0211112492e-03)
4.914            	(-4.0423739670e-02 -1.5601265440e-02 3.7069283139e-01)	(-4.2364724717e-02 -1.7646810543e-02 3.6967440252e-01)	(1.9409850469e-03 2.0455451036e-03 1.0184288713e-03)
4.915            	(-4.0892115784e-02 -1.5290674086e-02 3.6799976415e-01)	(-4.2831574153e-02 -1.7336623089e-02 3.6698446430e-01)	(1.9394583689e-03 2.0459490034e-03 1.0152998454e-03)
4.916            	(-4.0215146787e-02 -1.4876471857e-02 3.7186866036e-01)	(-4.2154709138e-02 -1.6924583846e-02 3.7085598035e-01)	(1.9395623505e-03 2.0481119885e-03 1.0126800101e-03)
4.917            	(-4.0316572071e-02 -1.4491193050e-02 3.7106702982e-01)	(-4.2256149195e-02 -1.6541081878e-02 3.7005709868e-01)	(1.9395771238e-03 2.0498888285e-03 1.0099311416e-03)
4.918            	(-4.0485001319e-02 -1.4101035830e-02 3.7075390468e-01)	(-4.2423978662e-02 -1.6152502831e-02 3.6974694619e-01)	(1.9389773429e-03 2.0514670008e-03 1.0069584944e-03)
4.919            	(-4.0512774012e-02 -1.3750524065e-02 3.7092357284e-01)	(-4.2451260270e-02 -1.5803453899e-02 3.6991955300e-01)	(1.9384862577e-03 2.0529298336e-03 1.0040198429e-03)
4.92             	(-4.0523010477e-02 -1.3342496466e-02 3.7059079663e-01)	(-4.2460929525e-02 -1.5396825869e-02 3.6958990023e-01)	(1.9379190475e-03 2.0543294030e-03 1.0008964023e-03)
4.921            	(-4.0622845955e-02 -1.3019999094e-02 3.7099363622e-01)	(-4.2560042955e-02 -1.5075584944e-02 3.6999579000e-01)	(1.9371970003e-03 2.0555858495e-03 9.9784621861e-04)
4.922            	(-4.0722767985e-02 -1.2579359399e-02 3.7043314646e-01)	(-4.2658891685e-02 -1.4636157043e-02 3.6943853837e-01)	(1.9361236996e-03 2.0567976439e-03 9.9460809086e-04)
4.923            	(-4.0672898054e-02 -1.2224660772e-02 3.7085117320e-01)	(-4.2608210806e-02 -1.4282684530e-02 3.6985968477e-01)	(1.9353127526e-03 2.0580237577e-03 9.9148842359e-04)
4.924            	(-4.0702039092e-02 -1.1846042425e-02 3.7104780591e-01)	(-4.2636433623e-02 -1.3905309266e-02 3.7005952724e-01)	(1.9343945315e-03 2.0592668409e-03 9.8827867115e-04)
4.925            	(-4.0793840976e-02 -1.1483077455e-02 3.7132438366e-01)	(-4.2727226796e-02 -1.3543539350e-02 3.7033923063e-01)	(1.9333858201e-03 2.0604618955e-03 9.8515302846e-04)
4.926            	(-4.0862278265e-02 -1.1061562840e-02 3.7093238498e-01)	(-4.2794321088e-02 -1.3123206978e-02 3.6995052632e-01)	(1.9320428236e-03 2.0616441381e-03 9.8185865865e-04)
4.927            	(-4.0836335774e-02 -1.0650205735e-02 3.7097948510e-01)	(-4.2767249784e-02 -1.2713142351e-02 3.7000087264e-01)	(1.9309140103e-03 2.0629366157e-03 9.7861245516e-04)
4.928            	(-4.0820894406e-02 -1.0248797224e-02 3.7108976895e-01)	(-4.2750681642e-02 -1.2313142198e-02 3.7011449857e-01)	(1.9297872355e-03 2.0643449742e-03 9.7527038065e-04)
4.929            	(-4.1435212196e-02 -9.5268889988e-03 3.6421965377e-01)	(-4.3362108343e-02 -1.1592024150e-02 3.6324851690e-01)	(1.9268961463e-03 2.0651351512e-03 9.7113687449e-04)
4.93             	(-4.1368590362e-02 -9.2697714192e-03 3.6598244577e-01)	(-4.3292647699e-02 -1.1335675348e-02 3.6501520771e-01)	(1.9240573367e-03 2.0659039288e-03 9.6723806496e-04)
4.931            	(-4.0756443702e-02 -9.3616088339e-03 3.7578430283e-01)	(-4.2680179214e-02 -1.1429088096e-02 3.7481965395e-01)	(1.9237355111e-03 2.0674792625e-03 9.6464888191e-04)
4.932            	(-4.0846061129e-02 -8.9373239353e-03 3.7342858576e-01)	(-4.2769080004e-02 -1.1006024260e-02 3.7246705225e-01)	(1.9230188749e-03 2.0687003245e-03 9.6153351544e-04)
4.933            	(-4.0958914191e-02 -8.4951305715e-03 3.7322189088e-01)	(-4.2880968145e-02 -1.0565076094e-02 3.7226350856e-01)	(1.9220539540e-03 2.0699455229e-03 9.5838232235e-04)
4.934            	(-4.0727900554e-02 -8.0166808308e-03 3.7314262510e-01)	(-4.2649625560e-02 -1.0088283781e-02 3.7218749231e-01)	(1.9217250059e-03 2.0716029499e-03 9.5513279206e-04)
4.935            	(-4.0783880794e-02 -7.6407730787e-03 3.7298464155e-01)	(-4.2705156089e-02 -9.7138949882e-03 3.7203276367e-01)	(1.9212752957e-03 2.0731219095e-03 9.5187788251e-04)
4.936            	(-4.0872533437e-02 -7.2310781510e-03 3.7256728895e-01)	(-4.2793036809e-02 -9.3056525017e-03 3.7161880667e-01)	(1.9205033713e-03 2.0745743507e-03 9.4848227786e-04)
4.937            	(-4.0902509630e-02 -6.8390111595e-03 3.7345904117e-01)	(-4.2822370241e-02 -8.9152670136e-03 3.7251380379e-01)	(1.9198606106e-03 2.0762558541e-03 9.4523737792e-04)
4.938            	(-4.0894613296e-02 -6.4061714949e-03 3.7261958858e-01)	(-4.2813774662e-02 -8.4840207790e-03 3.7167781023e-01)	(1.9191613660e-03 2.0778492841e-03 9.4177835849e-04)
4.939            	(-4.0932778815e-02 -6.0213376439e-03 3.7257558338e-01)	(-4.2851210108e-02 -8.1007476900e-03 3.7163722281e-01)	(1.9184312928e-03 2.0794100460e-03 9.3836056416e-04)
4.94             	(-4.0933577965e-02 -5.6336406636e-03 3.7254214658e-01)	(-4.2851301448e-02 -7.7145869286e-03 3.7160725167e-01)	(1.9177234828e-03 2.0809462650e-03 9.3489491125e-04)
4.941            	(-4.0986283843e-02 -5.2810170987e-03 3.7088300656e-01)	(-4.2903331172e-02 -7.3629479779e-03 3.6995178087e-01)	(1.9170473290e-03 2.0819308792e-03 9.3122568928e-04)
4.942            	(-4.0853644991e-02 -4.8246251621e-03 3.7235526095e-01)	(-4.2770275308e-02 -6.9082427960e-03 3.7142748907e-01)	(1.9166303167e-03 2.0836176339e-03 9.2777187842e-04)
4.943            	(-4.0956297292e-02 -4.4472818964e-03 3.7225974255e-01)	(-4.2872304641e-02 -6.5324685521e-03 3.7133539529e-01)	(1.9160073485e-03 2.0851866558e-03 9.2434726215e-04)
4.944            	(-4.0954313529e-02 -4.0367279519e-03 3.7195691998e-01)	(-4.2869726307e-02 -6.1234614616e-03 3.7103606543e-01)	(1.9154127773e-03 2.0867335097e-03 9.2085454980e-04)
4.945            	(-4.0922896828e-02 -3.6524989422e-03 3.7232070636e-01)	(-4.2837932706e-02 -5.7408590239e-03 3.7140326773e-01)	(1.9150358778e-03 2.0883600817e-03 9.1743863312e-04)
4.946            	(-4.1093048155e-02 -3.1831222861e-03 3.7139197682e-01)	(-4.3007168696e-02 -5.2731366774e-03 3.7047810228e-01)	(1.9141205404e-03 2.0900143913e-03 9.1387454035e-04)
4.947            	(-4.1040537984e-02 -2.8823074618e-03 3.7219021324e-01)	(-4.2954052010e-02 -4.9738219054e-03 3.7127974310e-01)	(1.9135140260e-03 2.0915144436e-03 9.1047014026e-04)
4.948            	(-4.1172937222e-02 -2.4156278279e-03 3.7144611258e-01)	(-4.3085390610e-02 -4.5087089300e-03 3.7053913893e-01)	(1.9124533884e-03 2.0930811021e-03 9.0697365628e-04)
4.949            	(-4.1940625222e-02 -1.3864467530e-03 3.5643458462e-01)	(-4.3849001483e-02 -3.4806681073e-03 3.5553284237e-01)	(1.9083762613e-03 2.0942213542e-03 9.0174224903e-04)
4.95             	(-4.1234404437e-02 -1.8758637908e-03 3.7678848097e-01)	(-4.3142138443e-02 -3.9715721223e-03 3.7588927604e-01)	(1.9077340067e-03 2.0957083314e-03 8.9920492303e-04)
4.951            	(-4.1489090395e-02 -1.2292099475e-03 3.7331795982e-01)	(-4.3394990885e-02 -3.3266103341e-03 3.7242181835e-01)	(1.9059004906e-03 2.0974003866e-03 8.9614146677e-04)
4.952            	(-4.1574743286e-02 -7.5200305108e-04 3.7148328878e-01)	(-4.3478582524e-02 -2.8510094007e-03 3.7059046776e-01)	(1.9038392373e-03 2.0990063496e-03 8.9282102031e-04)
4.953            	(-4.1394046188e-02 -4.4868032289e-04 3.7215509043e-01)	(-4.3296619943e-02 -2.5491166401e-03 3.7126552339e-01)	(1.9025737544e-03 2.1004363172e-03 8.8956704357e-04)
4.954            	(-4.1412943661e-02 -7.2911896151e-05 3.7106842829e-01)	(-4.3314255254e-02 -2.1745731881e-03 3.7018228703e-01)	(1.9013115926e-03 2.1016612919e-03 8.8614125387e-04)
4.955            	(-4.1918986364e-02 3.2563623422e-04 3.7010634005e-01)	(-4.3817786519e-02 -1.7768914042e-03 3.6922373627e-01)	(1.8988001547e-03 2.1025276384e-03 8.8260378171e-04)
4.956            	(-4.1327642944e-02 7.9215106765e-04 3.7118233403e-01)	(-4.3225846501e-02 -1.3119810149e-03 3.7030311723e-01)	(1.8982035562e-03 2.1041320826e-03 8.7921679953e-04)
4.957            	(-4.1542586519e-02 1.2364928902e-03 3.7045209857e-01)	(-4.3439672401e-02 -8.6929918004e-04 3.6957636879e-01)	(1.8970858821e-03 2.1057920702e-03 8.7572977987e-04)
4.958            	(-4.1344252334e-02 1.5492190729e-03 3.7121659816e-01)	(-4.3240957723e-02 -5.5808749399e-04 3.7034434341e-01)	(1.8967053885e-03 2.1073065669e-03 8.7225475372e-04)
4.959            	(-4.1490814433e-02 1.9712769194e-03 3.7042624939e-01)	(-4.3386826775e-02 -1.3751506654e-04 3.6955759640e-01)	(1.8960123416e-03 2.1087919860e-03 8.6865299015e-04)
4.96             	(-4.1577432280e-02 2.3868048574e-03 3.6977815041e-01)	(-4.3472552392e-02 2.7656817065e-04 3.6891326342e-01)	(1.8951201119e-03 2.1102366867e-03 8.6488698110e-04)
4.961            	(-4.1447550452e-02 2.7349239419e-03 3.7048071794e-01)	(-4.3342341165e-02 6.2326234928e-04 3.6961947877e-01)	(1.8947907122e-03 2.1116615926e-03 8.6123916708e-04)
4.962            	(-4.1609046197e-02 3.1979824288e-03 3.6909382680e-01)	(-4.3502988294e-02 1.0848315909e-03 3.6823645042e-01)	(1.8939420969e-03 2.1131508379e-03 8.5737638974e-04)
4.963            	(-4.1431007948e-02 3.5324075151e-03 3.7004007406e-01)	(-4.3324782857e-02 1.4177984934e-03 3.6918636846e-01)	(1.8937749093e-03 2.1146090217e-03 8.5370559887e-04)
4.964            	(-4.1476791287e-02 3.9371428970e-03 3.6972779644e-01)	(-4.3370275416e-02 1.8211130311e-03 3.6887783787e-01)	(1.8934841292e-03 2.1160298659e-03 8.4995856438e-04)
4.965            	(-4.1449996444e-02 4.2104756379e-03 3.6933861156e-01)	(-4.3343371389e-02 2.0935890246e-03 3.6849241918e-01)	(1.8933749458e-03 2.1168866133e-03 8.4619238609e-04)
4.966            	(-4.1424332421e-02 4.7074383492e-03 3.6946428080e-01)	(-4.3317535038e-02 2.5892192473e-03 3.6862186081e-01)	(1.8932026173e-03 2.1182191019e-03 8.4241998686e-04)
4.967            	(-4.1893673597e-02 5.2256742040e-03 3.6113102133e-01)	(-4.3785208168e-02 3.1066040986e-03 3.6029333007e-01)	(1.8915345710e-03 2.1190701055e-03 8.3769125977e-04)
4.968            	(-4.2193431588e-02 5.3749162313e-03 3.6764751335e-01)	(-4.4082651772e-02 3.2554309994e-03 3.6681366051e-01)	(1.8892201842e-03 2.1194852318e-03 8.3385283997e-04)
4.969            	(-4.1353620823e-02 5.9672145258e-03 3.6742206744e-01)	(-4.3243120861e-02 3.8462646324e-03 3.6659189888e-01)	(1.8895000377e-03 2.1209498934e-03 8.3016855959e-04)
4.97             	(-4.1454976424e-02 6.2621897494e-03 3.6848425586e-01)	(-4.3344422134e-02 4.1401305651e-03 3.6765767606e-01)	(1.8894457093e-03 2.1220591843e-03 8.2657980699e-04)
4.971            	(-4.1418409771e-02 6.6738951634e-03 3.6845693493e-01)	(-4.3308014343e-02 4.5505812900e-03 3.6763385847e-01)	(1.8896045720e-03 2.1233138734e-03 8.2307645390e-04)
4.972            	(-4.1259795314e-02 7.0391695871e-03 3.6841603602e-01)	(-4.3149974234e-02 4.9147217915e-03 3.6759648516e-01)	(1.8901789201e-03 2.1244477957e-03 8.1955086172e-04)
4.973            	(-4.1453714811e-02 7.4738675775e-03 3.6764799448e-01)	(-4.3343846760e-02 5.3482879958e-03 3.6683199741e-01)	(1.8901319486e-03 2.1255795817e-03 8.1599706257e-04)
4.974            	(-4.1390371927e-02 7.8283028280e-03 3.6745475369e-01)	(-4.3280527836e-02 5.7017451763e-03 3.6664237641e-01)	(1.8901559087e-03 2.1265576517e-03 8.1237728099e-04)
4.975            	(-4.1591736384e-02 8.2813087269e-03 3.6689076505e-01)	(-4.3481391071e-02 6.1537131066e-03 3.6608196378e-01)	(1.8896546870e-03 2.1275956202e-03 8.0880126636e-04)
4.976            	(-4.1578894421e-02 8.6704578407e-03 3.6675701889e-01)	(-4.3468039914e-02 6.5419109030e-03 3.6595184823e-01)	(1.8891454930e-03 2.1285469377e-03 8.0517066496e-04)
4.977            	(-4.1662910955e-02 9.0623958045e-03 3.6651679926e-01)	(-4.3551386930e-02 6.9329556345e-03 3.6571520698e-01)	(1.8884759747e-03 2.1294401701e-03 8.0159228400e-04)
4.978            	(-4.1658153994e-02 9.4854592551e-03 3.6616881965e-01)	(-4.3545933834e-02 7.3550816685e-03 3.6537090623e-01)	(1.8877798392e-03 2.1303775866e-03 7.9791341584e-04)
4.979            	(-4.1688870609e-02 9.8937827195e-03 3.6601898300e-01)	(-4.3575933701e-02 7.7624377329e-03 3.6522468694e-01)	(1.8870630920e-03 2.1313449866e-03 7.9429606209e-04)
4.98             	(-4.2914359437e-02 1.0634190783e-02 3.5971039890e-01)	(-4.4797044482e-02 8.5016431642e-03 3.5892052638e-01)	(1.8826850457e-03 2.1325476191e-03 7.8987251335e-04)
4.981            	(-4.1413756905e-02 1.0427487445e-02 3.6698499078e-01)	(-4.3296704600e-02 8.2946817156e-03 3.6619845735e-01)	(1.8829476953e-03 2.1328057295e-03 7.8653342736e-04)
4.982            	(-4.1698491587e-02 1.1047528256e-02 3.6509400091e-01)	(-4.3580821563e-02 8.9139600496e-03 3.6431116385e-01)	(1.8823299765e-03 2.1335682067e-03 7.8283705234e-04)
4.983            	(-4.1723171519e-02 1.1458865342e-02 3.6521119412e-01)	(-4.3604872267e-02 9.3244335683e-03 3.6443198665e-01)	(1.8817007479e-03 2.1344317735e-03 7.7920747542e-04)
4.984            	(-4.1792070246e-02 1.1866133491e-02 3.6462846146e-01)	(-4.3672842790e-02 9.7308513736e-03 3.6385306445e-01)	(1.8807725440e-03 2.1352821174e-03 7.7539700971e-04)
4.985            	(-4.1712742396e-02 1.2261974193e-02 3.6457543795e-01)	(-4.3592904589e-02 1.0125753866e-02 3.6380377753e-01)	(1.8801621930e-03 2.1362203277e-03 7.7166042241e-04)
4.986            	(-4.1616364360e-02 1.2673129763e-02 3.5682724179e-01)	(-4.3495522785e-02 1.0536087225e-02 3.5606029920e-01)	(1.8791584248e-03 2.1370425387e-03 7.6694259146e-04)
4.987            	(-4.1945802110e-02 1.3091650656e-02 3.6836964747e-01)	(-4.3823835274e-02 1.0953567918e-02 3.6760591807e-01)	(1.8780331647e-03 2.1380827387e-03 7.6372939530e-04)
4.988            	(-4.1777382226e-02 1.3426519842e-02 3.6468135606e-01)	(-4.3654452737e-02 1.1287630274e-02 3.6392135276e-01)	(1.8770705103e-03 2.1388895675e-03 7.6000329916e-04)
4.989            	(-4.1687032719e-02 1.3771702338e-02 3.6431491071e-01)	(-4.3563461929e-02 1.1632082937e-02 3.6355860039e-01)	(1.8764292097e-03 2.1396194016e-03 7.5631031223e-04)
4.99             	(-4.2016862254e-02 1.4071351800e-02 3.6301982501e-01)	(-4.3891454744e-02 1.1931687355e-02 3.6226742203e-01)	(1.8745924897e-03 2.1396644454e-03 7.5240298077e-04)
4.991            	(-4.1663689863e-02 1.4692396065e-02 3.6451966597e-01)	(-4.3537215821e-02 1.2551384118e-02 3.6377085814e-01)	(1.8735259579e-03 2.1410119469e-03 7.4880783426e-04)
4.992            	(-4.1793587229e-02 1.4991179416e-02 3.6257454762e-01)	(-4.3665532097e-02 1.2849348229e-02 3.6182961480e-01)	(1.8719448683e-03 2.1418311872e-03 7.4493281419e-04)
4.993            	(-4.1733782713e-02 1.5342511792e-02 3.6240051955e-01)	(-4.3604318348e-02 1.3199930790e-02 3.6165933213e-01)	(1.8705356346e-03 2.1425810021e-03 7.4118742082e-04)
4.994            	(-4.1673481698e-02 1.5729434197e-02 3.6199023524e-01)	(-4.3542601492e-02 1.3586092884e-02 3.6125286813e-01)	(1.8691197932e-03 2.1433413122e-03 7.3736711241e-04)
4.995            	(-4.1820881449e-02 1.6054063439e-02 3.6038780567e-01)	(-4.3688148842e-02 1.3910237839e-02 3.5965428753e-01)	(1.8672673934e-03 2.1438255996e-03 7.3351814020e-04)
4.996            	(-4.1667649797e-02 1.6496729377e-02 3.6114622755e-01)	(-4.3533334947e-02 1.4352094762e-02 3.6041644361e-01)	(1.8656851500e-03 2.1446346150e-03 7.2978393916e-04)
4.997            	(-4.1772088696e-02 1.6864061429e-02 3.6016154715e-01)	(-4.3635789828e-02 1.4718612331e-02 3.5943552455e-01)	(1.8637011315e-03 2.1454490986e-03 7.2602259755e-04)
4.998            	(-4.1698149322e-02 1.7286686121e-02 3.5996898888e-01)	(-4.3559882616e-02 1.5140244629e-02 3.5924673612e-01)	(1.8617332937e-03 2.1464414923e-03 7.2225275952e-04)
4.999            	(-4.1847444884e-02 1.7626695445e-02 3.5988866442e-01)	(-4.3706711421e-02 1.5479413333e-02 3.5917010104e-01)	(1.8592665368e-03 2.1472821114e-03 7.1856337401e-04)
5                	(-4.1743677337e-02 1.8098803198e-02 3.5952759308e-01)	(-4.3600555930e-02 1.5950201316e-02 3.5881280529e-01)	(1.8568785934e-03 2.1486018823e-03 7.1478779462e-04)
5.001            	(-4.1981743368e-02 1.8482339649e-02 3.5952689255e-01)	(-4.3835456616e-02 1.6332391952e-02 3.5881587090e-01)	(1.8537132481e-03 2.1499476965e-03 7.1102165041e-04)
5.002            	(-4.3488530411e-02 1.8342533176e-02 3.3158261140e-01)	(-4.5333557523e-02 1.6192670285e-02 3.3087864958e-01)	(1.8450271121e-03 2.1498628905e-03 7.0396182457e-04)
5.003            	(-4.1743787449e-02 1.9263836879e-02 3.6349166245e-01)	(-4.3586802948e-02 1.7112451723e-02 3.6279048940e-01)	(1.8430154991e-03 2.1513851553e-03 7.0117304908e-04)
5.004            	(-4.2558589673e-02 1.9454950229e-02 3.5841939206e-01)	(-4.4396897450e-02 1.7302587799e-02 3.5772181163e-01)	(1.8383077773e-03 2.1523624304e-03 6.9758042794e-04)
5.005            	(-4.2034571915e-02 1.9956338364e-02 3.5966795580e-01)	(-4.3869922400e-02 1.7802567717e-02 3.5897375188e-01)	(1.8353504856e-03 2.1537706470e-03 6.9420392303e-04)
5.006            	(-4.2337461081e-02 2.0237622397e-02 3.5854981950e-01)	(-4.4168792853e-02 1.8082792003e-02 3.5785935241e-01)	(1.8313317715e-03 2.1548303945e-03 6.9046708635e-04)
5.007            	(-4.1974377334e-02 2.0746066709e-02 3.5862265952e-01)	(-4.3802675622e-02 1.8589488573e-02 3.5793586286e-01)	(1.8282982878e-03 2.1565781362e-03 6.8679665732e-04)
5.008            	(-4.4143179888e-02 2.0990563053e-02 3.5707675088e-01)	(-4.5962628488e-02 1.8832685690e-02 3.5639393688e-01)	(1.8194485994e-03 2.1578773635e-03 6.8281399848e-04)
5.009            	(-4.1768569048e-02 2.1361577660e-02 3.5728553922e-01)	(-4.3586157664e-02 1.9202272123e-02 3.5660649342e-01)	(1.8175886156e-03 2.1593055371e-03 6.7904580518e-04)
5.01             	(-4.1764608918e-02 2.1838727601e-02 3.5814249943e-01)	(-4.3580334326e-02 1.9677629095e-02 3.5746732587e-01)	(1.8157254082e-03 2.1610985056e-03 6.7517355386e-04)
5.011            	(-4.1900729022e-02 2.2196438484e-02 3.5693259586e-01)	(-4.3714401411e-02 2.0033605813e-02 3.5626143070e-01)	(1.8136723893e-03 2.1628326710e-03 6.7116516385e-04)
5.012            	(-4.1883980211e-02 2.2544236175e-02 3.5595996533e-01)	(-4.3695581959e-02 2.0379756998e-02 3.5529310328e-01)	(1.8116017484e-03 2.1644791773e-03 6.6686205151e-04)
5.013            	(-4.1820894230e-02 2.2897758437e-02 3.5592757540e-01)	(-4.3630794659e-02 2.0731667210e-02 3.5526499351e-01)	(1.8099004293e-03 2.1660912267e-03 6.6258189289e-04)
5.014            	(-4.1816164560e-02 2.3292641262e-02 3.5520078083e-01)	(-4.3624305952e-02 2.1124907892e-02 3.5454268237e-01)	(1.8081413923e-03 2.1677333694e-03 6.5809846014e-04)
5.015            	(-4.1728057224e-02 2.3658396842e-02 3.5552588575e-01)	(-4.3534782819e-02 2.1489077434e-02 3.5487216765e-01)	(1.8067255950e-03 2.1693194081e-03 6.5371809467e-04)
5.016            	(-4.1756986624e-02 2.3962405904e-02 3.5406327427e-01)	(-4.3562135708e-02 2.1791773811e-02 3.5341420460e-01)	(1.8051490831e-03 2.1706320931e-03 6.4906966651e-04)
5.017            	(-4.1614133210e-02 2.4436662545e-02 3.5490035116e-01)	(-4.3418143693e-02 2.2264379698e-02 3.5425577070e-01)	(1.8040104834e-03 2.1722828467e-03 6.4458045893e-04)
5.018            	(-4.1437322808e-02 2.4956969652e-02 3.5711378242e-01)	(-4.3240620860e-02 2.2782776979e-02 3.5647356124e-01)	(1.8032980518e-03 2.1741926731e-03 6.4022117949e-04)
5.019            	(-4.1819641981e-02 2.5221937757e-02 3.5472411765e-01)	(-4.3621137883e-02 2.3046241111e-02 3.5408846883e-01)	(1.8014959018e-03 2.1756966466e-03 6.3564882262e-04)
5.02             	(-4.1676234040e-02 2.5551849166e-02 3.5437305707e-01)	(-4.3476349338e-02 2.3374832748e-02 3.5374207068e-01)	(1.8001152977e-03 2.1770164184e-03 6.3098639449e-04)
5.021            	(-4.1657841375e-02 2.5907000780e-02 3.5371652464e-01)	(-4.3456660020e-02 2.3728723315e-02 3.5309014405e-01)	(1.7988186449e-03 2.1782774650e-03 6.2638058826e-04)
5.022            	(-4.1650017088e-02 2.6264684263e-02 3.5327386771e-01)	(-4.3447437520e-02 2.4085246358e-02 3.5265214342e-01)	(1.7974204321e-03 2.1794379059e-03 6.2172428054e-04)
5.023            	(-4.1634643069e-02 2.6614086078e-02 3.5280344542e-01)	(-4.3430721814e-02 2.4433600077e-02 3.5218628785e-01)	(1.7960787455e-03 2.1804860005e-03 6.1715757309e-04)
5.024            	(-4.1684293881e-02 2.6935735075e-02 3.5210783118e-01)	(-4.3478830435e-02 2.4754441560e-02 3.5149527495e-01)	(1.7945365539e-03 2.1812935149e-03 6.1255622956e-04)
5.025            	(-4.1637220398e-02 2.7308856052e-02 3.5213102648e-01)	(-4.3430391610e-02 2.5126816599e-02 3.5152291110e-01)	(1.7931712124e-03 2.1820394529e-03 6.0811538253e-04)
5.026            	(-4.1628280369e-02 2.7668798196e-02 3.5192048595e-01)	(-4.3420029905e-02 2.5486149305e-02 3.5131677862e-01)	(1.7917495360e-03 2.1826488908e-03 6.0370733397e-04)
5.027            	(-4.2010832219e-02 2.7888443303e-02 3.5085121120e-01)	(-4.3800014283e-02 2.5705877823e-02 3.5025181560e-01)	(1.7891820635e-03 2.1825654800e-03 5.9939560598e-04)
5.028            	(-4.2073288852e-02 2.8456773177e-02 3.4615954268e-01)	(-4.3859607196e-02 2.6273229530e-02 3.4556500970e-01)	(1.7863183438e-03 2.1835436471e-03 5.9453297761e-04)
5.029            	(-4.1468091062e-02 2.8667150484e-02 3.5203095866e-01)	(-4.3253575007e-02 2.6483511574e-02 3.5144020877e-01)	(1.7854839450e-03 2.1836389098e-03 5.9074988667e-04)
5.03             	(-4.2329476068e-02 2.8945462361e-02 3.4989627680e-01)	(-4.4111650995e-02 2.6762008800e-02 3.4930959049e-01)	(1.7821749272e-03 2.1834535607e-03 5.8668631464e-04)
5.031            	(-4.1934095541e-02 2.8677661111e-02 3.3967845694e-01)	(-4.3713845942e-02 2.6495270180e-02 3.3909676409e-01)	(1.7797504015e-03 2.1823909314e-03 5.8169285733e-04)
5.032            	(-4.1584520039e-02 2.9952084358e-02 3.5425661185e-01)	(-4.3363402587e-02 2.7769695558e-02 3.5367803957e-01)	(1.7788825488e-03 2.1823887999e-03 5.7857228180e-04)
5.033            	(-4.1450603994e-02 3.0023231466e-02 3.5039564071e-01)	(-4.3229042742e-02 2.7841308004e-02 3.4982052195e-01)	(1.7784387478e-03 2.1819234619e-03 5.7511875697e-04)
5.034            	(-4.1738479889e-02 3.0292539589e-02 3.4852122488e-01)	(-4.3515468373e-02 2.8111490309e-02 3.4794981910e-01)	(1.7769884841e-03 2.1810492802e-03 5.7140578435e-04)
5.035            	(-4.1305975904e-02 3.0910132603e-02 3.5080680685e-01)	(-4.3082660291e-02 2.8729128927e-02 3.5023873424e-01)	(1.7766843869e-03 2.1810036765e-03 5.6807260858e-04)
5.036            	(-4.1421616417e-02 3.1220767649e-02 3.4991924766e-01)	(-4.3197660292e-02 2.9039996689e-02 3.4935461470e-01)	(1.7760438752e-03 2.1807709604e-03 5.6463296254e-04)
5.037            	(-4.1499877752e-02 3.1501733513e-02 3.4903655162e-01)	(-4.3275168917e-02 2.9321436931e-02 3.4847537710e-01)	(1.7752911650e-03 2.1802965819e-03 5.6117452449e-04)
5.038            	(-4.1359826367e-02 3.1863077436e-02 3.4864449349e-01)	(-4.3134626350e-02 2.9683248818e-02 3.4808687016e-01)	(1.7747999835e-03 2.1798286181e-03 5.5762333196e-04)
5.039            	(-4.1341030646e-02 3.2203768399e-02 3.4790762368e-01)	(-4.3115393063e-02 3.0024401037e-02 3.4735356011e-01)	(1.7743624171e-03 2.1793673622e-03 5.5406357102e-04)
5.04             	(-4.1279943246e-02 3.2517683957e-02 3.4764165638e-01)	(-4.3054008122e-02 3.0338954219e-02 3.4709112922e-01)	(1.7740648764e-03 2.1787297382e-03 5.5052715904e-04)
5.041            	(-4.1311322080e-02 3.2888648542e-02 3.4700393644e-01)	(-4.3084834285e-02 3.0710452336e-02 3.4645695655e-01)	(1.7735122057e-03 2.1781962053e-03 5.4697988441e-04)
5.042            	(-4.1172515167e-02 3.3133440192e-02 3.4638770752e-01)	(-4.2945919446e-02 3.0956124276e-02 3.4584426855e-01)	(1.7734042789e-03 2.1773159166e-03 5.4343897352e-04)
5.043            	(-4.1126162537e-02 3.3548239740e-02 3.4649273927e-01)	(-4.2899474220e-02 3.1371598248e-02 3.4595270354e-01)	(1.7733116836e-03 2.1766414925e-03 5.4003572617e-04)
5.044            	(-4.1101029733e-02 3.3880992561e-02 3.4589473836e-01)	(-4.2874218741e-02 3.1705125918e-02 3.4535819355e-01)	(1.7731890083e-03 2.1758666433e-03 5.3654481221e-04)
5.045            	(-4.1097832943e-02 3.3627562979e-02 3.3684184922e-01)	(-4.2870371904e-02 3.1452921573e-02 3.3630971678e-01)	(1.7725389605e-03 2.1746414058e-03 5.3213244234e-04)
5.046            	(-4.0882073160e-02 3.4682215123e-02 3.4710672546e-01)	(-4.2654971529e-02 3.2508459123e-02 3.4657761348e-01)	(1.7728983693e-03 2.1737559996e-03 5.2911197468e-04)
5.047            	(-4.0917288344e-02 3.4966792869e-02 3.4589853574e-01)	(-4.2690176868e-02 3.2793879881e-02 3.4537251155e-01)	(1.7728885240e-03 2.1729129877e-03 5.2602418329e-04)
5.048            	(-4.0797264633e-02 3.5330648402e-02 3.4551562979e-01)	(-4.2570466419e-02 3.3158704734e-02 3.4499270694e-01)	(1.7732017861e-03 2.1719436678e-03 5.2292284936e-04)
5.049            	(-4.0644299384e-02 3.5691950573e-02 3.4522592114e-01)	(-4.2418278421e-02 3.3520916882e-02 3.4470606421e-01)	(1.7739790373e-03 2.1710336906e-03 5.1985693041e-04)
5.05             	(-4.0921686474e-02 3.5878614840e-02 3.4322761543e-01)	(-4.2695533876e-02 3.3708881290e-02 3.4271109056e-01)	(1.7738474019e-03 2.1697335497e-03 5.1652487503e-04)
5.051            	(-4.0839995153e-02 3.6159422311e-02 3.4266260285e-01)	(-4.2613967761e-02 3.3991102489e-02 3.4214932777e-01)	(1.7739726085e-03 2.1683198221e-03 5.1327507357e-04)
5.052            	(-4.0822108193e-02 3.6493760345e-02 3.4242234170e-01)	(-4.2596121186e-02 3.4326969051e-02 3.4191235472e-01)	(1.7740129937e-03 2.1667912938e-03 5.0998698065e-04)
5.053            	(-4.1044763418e-02 3.6768391988e-02 3.4082567897e-01)	(-4.2818070363e-02 3.4603212535e-02 3.4031907272e-01)	(1.7733069447e-03 2.1651794532e-03 5.0660625077e-04)
5.054            	(-4.1133877204e-02 3.6865927256e-02 3.4023114728e-01)	(-4.2906161828e-02 3.4702992759e-02 3.3972793077e-01)	(1.7722846246e-03 2.1629344965e-03 5.0321651088e-04)
5.055            	(-4.0706351941e-02 3.7425430534e-02 3.4139038533e-01)	(-4.2478765081e-02 3.5264222384e-02 3.4089032829e-01)	(1.7724131399e-03 2.1612081499e-03 5.0005704358e-04)
5.056            	(-4.0774384474e-02 3.7716703588e-02 3.4047752131e-01)	(-4.2546594523e-02 3.5557312191e-02 3.3998070299e-01)	(1.7722100489e-03 2.1593913962e-03 4.9681832800e-04)
5.057            	(-4.0593692064e-02 3.8045211820e-02 3.4026710964e-01)	(-4.2366135035e-02 3.5887618530e-02 3.3977346150e-01)	(1.7724429711e-03 2.1575932901e-03 4.9364814758e-04)
5.058            	(-4.0544705446e-02 3.8351711432e-02 3.3973848683e-01)	(-4.2317316570e-02 3.6195999347e-02 3.3924804750e-01)	(1.7726111240e-03 2.1557120845e-03 4.9043933367e-04)
5.059            	(-4.0561060589e-02 3.8665073475e-02 3.3933939804e-01)	(-4.2333635025e-02 3.6511281164e-02 3.3885213066e-01)	(1.7725744355e-03 2.1537923110e-03 4.8726737964e-04)
5.06             	(-4.0587841906e-02 3.8573848101e-02 3.3342511824e-01)	(-4.2359807216e-02 3.6422225510e-02 3.3294170291e-01)	(1.7719653101e-03 2.1516225905e-03 4.8341533578e-04)
5.061            	(-4.1038086208e-02 3.8930738682e-02 3.3470200031e-01)	(-4.2808354186e-02 3.6781542376e-02 3.3422214569e-01)	(1.7702679776e-03 2.1491963054e-03 4.7985462764e-04)
5.062            	(-4.0353461826e-02 3.9856467844e-02 3.4010481227e-01)	(-4.2123868362e-02 3.7708938287e-02 3.3962784714e-01)	(1.7704065365e-03 2.1475295568e-03 4.7696513125e-04)
5.063            	(-4.0557961300e-02 3.9863088945e-02 3.3751955025e-01)	(-4.2327727237e-02 3.7717806148e-02 3.3704570376e-01)	(1.7697659367e-03 2.1452827967e-03 4.7384649333e-04)
5.064            	(-4.0225206021e-02 4.0249152590e-02 3.3732181263e-01)	(-4.1995001287e-02 3.8105788708e-02 3.3685116800e-01)	(1.7697952664e-03 2.1433638822e-03 4.7064462209e-04)
5.065            	(-4.0196420807e-02 4.0574367582e-02 3.3700365186e-01)	(-4.1966184734e-02 3.8432882461e-02 3.3653620387e-01)	(1.7697639266e-03 2.1414851204e-03 4.6744798893e-04)