# Force          
# CofR           : (0.0000000000e+00 0.0000000000e+00 0.0000000000e+00)
#                
# Time           	(total_x total_y total_z)	(pressure_x pressure_y pressure_z)	(viscous_x viscous_y viscous_z)
0.428            	(1.3444320825e-02 -1.2208093262e-02 3.6804258844e-02)	(1.0559946152e-02 -1.3311645057e-02 3.6064147519e-02)	(2.8843746721e-03 1.1035517950e-03 7.4011132498e-04)
0.429            	(1.3444090769e-02 -1.2517376112e-02 3.7646250288e-02)	(1.0555951535e-02 -1.3617076039e-02 3.6903519265e-02)	(2.8881392339e-03 1.0996999265e-03 7.4273102256e-04)
0.43             	(1.3399231676e-02 -1.2822263706e-02 3.8532256784e-02)	(1.0507342312e-02 -1.3918165558e-02 3.7786906298e-02)	(2.8918893638e-03 1.0959018521e-03 7.4535048594e-04)
0.431            	(1.3463346838e-02 -1.2988243648e-02 3.9034199873e-02)	(1.0567449305e-02 -1.4080449166e-02 3.8286244237e-02)	(2.8958975327e-03 1.0922055176e-03 7.4795563535e-04)
0.432            	(1.3300594682e-02 -1.3181842471e-02 3.9569821443e-02)	(1.0401103000e-02 -1.4270330645e-02 3.8819327835e-02)	(2.8994916821e-03 1.0884881739e-03 7.5049360847e-04)
0.433            	(1.3469959928e-02 -1.3564648234e-02 4.0772389931e-02)	(1.0566275709e-02 -1.4649652382e-02 4.0019220120e-02)	(2.9036842189e-03 1.0850041476e-03 7.5316981063e-04)
1.815            	(1.9054669145e-02 -5.6844920643e-02 -2.9474168075e-01)	(1.7363188709e-02 -5.8172090348e-02 -2.9335697931e-01)	(1.6914804363e-03 1.3271697046e-03 -1.3847014378e-03)
