# Force          
# CofR           : (0.0000000000e+00 0.0000000000e+00 0.0000000000e+00)
#                
# Time           	(total_x total_y total_z)	(pressure_x pressure_y pressure_z)	(viscous_x viscous_y viscous_z)
4.901            	(-4.0103472413e-02 -2.0377804686e-02 3.6734967197e-01)	(-4.2053391898e-02 -2.2400400412e-02 3.6629383166e-01)	(1.9499194843e-03 2.0225957254e-03 1.0558403062e-03)
4.902            	(-4.0164917386e-02 -1.9971468776e-02 3.6695355182e-01)	(-4.2114647526e-02 -2.1995812153e-02 3.6590048794e-01)	(1.9497301396e-03 2.0243433762e-03 1.0530638867e-03)
4.903            	(-4.0166256406e-02 -1.9615235752e-02 3.6712937102e-01)	(-4.2115902655e-02 -2.1641282800e-02 3.6607909414e-01)	(1.9496462481e-03 2.0260470476e-03 1.0502768805e-03)
4.904            	(-4.0290932021e-02 -1.9197259801e-02 3.6711282900e-01)	(-4.2240081440e-02 -2.1225114826e-02 3.6606540545e-01)	(1.9491494193e-03 2.0278550247e-03 1.0474235518e-03)
4.905            	(-4.0669688140e-02 -1.8734786575e-02 3.6608162825e-01)	(-4.2617285908e-02 -2.0764255702e-02 3.6503719830e-01)	(1.9475977675e-03 2.0294691267e-03 1.0444299545e-03)
4.906            	(-4.0123926230e-02 -1.8505428451e-02 3.6782476212e-01)	(-4.2071617833e-02 -2.0536742031e-02 3.6678312063e-01)	(1.9476916029e-03 2.0313135801e-03 1.0416414908e-03)
