# Force          
# CofR           : (0.0000000000e+00 0.0000000000e+00 0.0000000000e+00)
#                
# Time           	(total_x total_y total_z)	(pressure_x pressure_y pressure_z)	(viscous_x viscous_y viscous_z)
1.801            	(1.8523305154e-02 -5.9109690184e-02 -2.8642201875e-01)	(1.6811363985e-02 -6.0358818639e-02 -2.8504217750e-01)	(1.7119411691e-03 1.2491284552e-03 -1.3798412460e-03)
1.802            	(1.8568410077e-02 -5.8953759969e-02 -2.8701546554e-01)	(1.6857318844e-02 -6.0208628205e-02 -2.8563496594e-01)	(1.7110912327e-03 1.2548682359e-03 -1.3804995944e-03)
1.803            	(1.8440884955e-02 -5.8858085485e-02 -2.8772702877e-01)	(1.6731177392e-02 -6.0118529727e-02 -2.8634588544e-01)	(1.7097075623e-03 1.2604442417e-03 -1.3811433232e-03)
1.804            	(1.8200952144e-02 -5.8683570210e-02 -2.8791604168e-01)	(1.6493321533e-02 -5.9949195165e-02 -2.8653443329e-01)	(1.7076306115e-03 1.2656249548e-03 -1.3816083946e-03)
1.805            	(1.8414965053e-02 -5.8395279187e-02 -2.8817233048e-01)	(1.6708786613e-02 -5.9666473603e-02 -2.8679021968e-01)	(1.7061784401e-03 1.2711944158e-03 -1.3821107948e-03)
1.806            	(1.8553431747e-02 -5.8279537158e-02 -2.8883224871e-01)	(1.6848286444e-02 -5.9556294838e-02 -2.8744970659e-01)	(1.7051453035e-03 1.2767576803e-03 -1.3825421232e-03)
1.807            	(1.8533826219e-02 -5.8104550987e-02 -2.8946730433e-01)	(1.6829962790e-02 -5.9387001767e-02 -2.8808429806e-01)	(1.7038634291e-03 1.2824507791e-03 -1.3830062698e-03)
