# Forces
# CofR       : (0.000000e+00 0.000000e+00 0.000000e+00)
# Time       forces(pressure viscous porous) moment(pressure viscous porous)
0.0	((0.0 1.0 2.0) (3.0 4.0 5.0) (6.0 7.0 8.0)) ((0.0 1.0 2.0) (3.0 4.0 5.0) (6.0 7.0 8.0))
0.01	((0.313953 1.313952595 2.313952595) (3.313952595 4.313952595 5.313952595) (6.313952595 7.313952595 8.313952595)) ((0.313953 1.313952595 2.313952595) (3.313952595 4.313952595 5.313952595) (6.313952595 7.313952595 8.313952595))
0.02	((0.626666 1.62666618824 2.62666618824) (3.62666618824 4.62666618824 5.62666618824) (6.62666618824 7.62666618824 8.62666618824)) ((0.626666 1.62666618824 2.62666618824) (3.62666618824 4.62666618824 5.62666618824) (6.62666618824 7.62666618824 8.62666618824))
0.03	((0.936907 1.93690657616 2.93690657616) (3.93690657616 4.93690657616 5.93690657616) (6.93690657616 7.93690657616 8.93690657616)) ((0.936907 1.93690657616 2.93690657616) (3.93690657616 4.93690657616 5.93690657616) (6.93690657616 7.93690657616 8.93690657616))
0.04	((1.24345 2.24344956875 3.24344956875) (4.24344956875 5.24344956875 6.24344956875) (7.24344956875 8.24344956875 9.24344956875)) ((1.24345 2.24344956875 3.24344956875) (4.24344956875 5.24344956875 6.24344956875) (7.24344956875 8.24344956875 9.24344956875))
0.05	((1.54508 2.54508495331 3.54508495331) (4.54508495331 5.54508495331 6.54508495331) (7.54508495331 8.54508495331 9.54508495331)) ((1.54508 2.54508495331 3.54508495331) (4.54508495331 5.54508495331 6.54508495331) (7.54508495331 8.54508495331 9.54508495331))
0.06	((1.84062 2.8406226635 3.8406226635) (4.8406226635 5.8406226635 6.8406226635) (7.8406226635 8.8406226635 9.8406226635)) ((1.84062 2.8406226635 3.8406226635) (4.8406226635 5.8406226635 6.8406226635) (7.8406226635 8.8406226635 9.8406226635))
0.07	((2.1289 3.12889647484 4.12889647484) (5.12889647484 6.12889647484 7.12889647484) (8.12889647484 9.12889647484 10.1288964748)) ((2.1289 3.12889647484 4.12889647484) (5.12889647484 6.12889647484 7.12889647484) (8.12889647484 9.12889647484 10.1288964748))
0.08	((2.40877 3.40876865387 4.40876865387) (5.40876865387 6.40876865387 7.40876865387) (8.40876865387 9.40876865387 10.4087686539)) ((2.40877 3.40876865387 4.40876865387) (5.40876865387 6.40876865387 7.40876865387) (8.40876865387 9.40876865387 10.4087686539))
0.09	((2.67913 3.6791343689 4.6791343689) (5.6791343689 6.6791343689 7.6791343689) (8.6791343689 9.6791343689 10.6791343689)) ((2.67913 3.6791343689 4.6791343689) (5.6791343689 6.6791343689 7.6791343689) (8.6791343689 9.6791343689 10.6791343689))
0.1	((2.93893 3.93892621994 4.93892621994) (5.93892621994 6.93892621994 7.93892621994) (8.93892621994 9.93892621994 10.9389262199)) ((2.93893 3.93892621994 4.93892621994) (5.93892621994 6.93892621994 7.93892621994) (8.93892621994 9.93892621994 10.9389262199))
0.11	((3.18712 4.1871201992 5.1871201992) (6.1871201992 7.1871201992 8.1871201992) (9.1871201992 10.1871201992 11.1871201992)) ((3.18712 4.1871201992 5.1871201992) (6.1871201992 7.1871201992 8.1871201992) (9.1871201992 10.1871201992 11.1871201992))
0.12	((3.42274 4.42273569107 5.42273569107) (6.42273569107 7.42273569107 8.42273569107) (9.42273569107 10.4227356911 11.4227356911)) ((3.42274 4.42273569107 5.42273569107) (6.42273569107 7.42273569107 8.42273569107) (9.42273569107 10.4227356911 11.4227356911))
0.13	((3.64484 4.6448431015 5.6448431015) (6.6448431015 7.6448431015 8.6448431015) (9.6448431015 10.6448431015 11.6448431015)) ((3.64484 4.6448431015 5.6448431015) (6.6448431015 7.6448431015 8.6448431015) (9.6448431015 10.6448431015 11.6448431015))
0.14	((3.85257 4.85256624222 5.85256624222) (6.85256624222 7.85256624222 8.85256624222) (9.85256624222 10.8525662422 11.8525662422)) ((3.85257 4.85256624222 5.85256624222) (6.85256624222 7.85256624222 8.85256624222) (9.85256624222 10.8525662422 11.8525662422))
0.15	((4.04509 5.04508543015 6.04508543015) (7.04508543015 8.04508543015 9.04508543015) (10.0450854301 11.0450854301 12.0450854301)) ((4.04509 5.04508543015 6.04508543015) (7.04508543015 8.04508543015 9.04508543015) (10.0450854301 11.0450854301 12.0450854301))
0.16	((4.22164 5.22163963318 6.22163963318) (7.22163963318 8.22163963318 9.22163963318) (10.2216396332 11.2216396332 12.2216396332)) ((4.22164 5.22163963318 6.22163963318) (7.22163963318 8.22163963318 9.22163963318) (10.2216396332 11.2216396332 12.2216396332))
0.17	((4.38153 5.38153362274 6.38153362274) (7.38153362274 8.38153362274 9.38153362274) (10.3815336227 11.3815336227 12.3815336227)) ((4.38153 5.38153362274 6.38153362274) (7.38153362274 8.38153362274 9.38153362274) (10.3815336227 11.3815336227 12.3815336227))
0.18	((4.52414 5.5241355896 6.5241355896) (7.5241355896 8.5241355896 9.5241355896) (10.5241355896 11.5241355896 12.5241355896)) ((4.52414 5.5241355896 6.5241355896) (7.5241355896 8.5241355896 9.5241355896) (10.5241355896 11.5241355896 12.5241355896))
0.19	((4.64888 5.64888238907 6.64888238907) (7.64888238907 8.64888238907 9.64888238907) (10.6488823891 11.6488823891 12.6488823891)) ((4.64888 5.64888238907 6.64888238907) (7.64888238907 8.64888238907 9.64888238907) (10.6488823891 11.6488823891 12.6488823891))
0.2	((4.75528 5.75528287888 6.75528287888) (7.75528287888 8.75528287888 9.75528287888) (10.7552828789 11.7552828789 12.7552828789)) ((4.75528 5.75528287888 6.75528287888) (7.75528287888 8.75528287888 9.75528287888) (10.7552828789 11.7552828789 12.7552828789))
0.21	((4.84292 5.84291601181 6.84291601181) (7.84291601181 8.84291601181 9.84291601181) (10.8429160118 11.8429160118 12.8429160118)) ((4.84292 5.84291601181 6.84291601181) (7.84291601181 8.84291601181 9.84291601181) (10.8429160118 11.8429160118 12.8429160118))
0.22	((4.91144 5.91143655777 6.91143655777) (7.91143655777 8.91143655777 9.91143655777) (10.9114365578 11.9114365578 12.9114365578)) ((4.91144 5.91143655777 6.91143655777) (7.91143655777 8.91143655777 9.91143655777) (10.9114365578 11.9114365578 12.9114365578))
0.23	((4.96057 5.96057367325 6.96057367325) (7.96057367325 8.96057367325 9.96057367325) (10.9605736732 11.9605736732 12.9605736732)) ((4.96057 5.96057367325 6.96057367325) (7.96057367325 8.96057367325 9.96057367325) (10.9605736732 11.9605736732 12.9605736732))
0.24	((4.99013 5.99013376236 6.99013376236) (7.99013376236 8.99013376236 9.99013376236) (10.9901337624 11.9901337624 12.9901337624)) ((4.99013 5.99013376236 6.99013376236) (7.99013376236 8.99013376236 9.99013376236) (10.9901337624 11.9901337624 12.9901337624))
0.25	((5.0 6.0 7.0) (8.0 9.0 10.0) (11.0 12.0 13.0)) ((5.0 6.0 7.0) (8.0 9.0 10.0) (11.0 12.0 13.0))
0.26	((4.99013 5.99013376236 6.99013376236) (7.99013376236 8.99013376236 9.99013376236) (10.9901337624 11.9901337624 12.9901337624)) ((4.99013 5.99013376236 6.99013376236) (7.99013376236 8.99013376236 9.99013376236) (10.9901337624 11.9901337624 12.9901337624))
0.27	((4.96057 5.96057319641 6.96057319641) (7.96057319641 8.96057319641 9.96057319641) (10.9605731964 11.9605731964 12.9605731964)) ((4.96057 5.96057319641 6.96057319641) (7.96057319641 8.96057319641 9.96057319641) (10.9605731964 11.9605731964 12.9605731964))
0.28	((4.91144 5.91143608093 6.91143608093) (7.91143608093 8.91143608093 9.91143608093) (10.9114360809 11.9114360809 12.9114360809)) ((4.91144 5.91143608093 6.91143608093) (7.91143608093 8.91143608093 9.91143608093) (10.9114360809 11.9114360809 12.9114360809))
0.29	((4.84292 5.84291601181 6.84291601181) (7.84291601181 8.84291601181 9.84291601181) (10.8429160118 11.8429160118 12.8429160118)) ((4.84292 5.84291601181 6.84291601181) (7.84291601181 8.84291601181 9.84291601181) (10.8429160118 11.8429160118 12.8429160118))
0.3	((4.75528 5.75528240204 6.75528240204) (7.75528240204 8.75528240204 9.75528240204) (10.755282402 11.755282402 12.755282402)) ((4.75528 5.75528240204 6.75528240204) (7.75528240204 8.75528240204 9.75528240204) (10.755282402 11.755282402 12.755282402))
0.31	((4.64888 5.64888191223 6.64888191223) (7.64888191223 8.64888191223 9.64888191223) (10.6488819122 11.6488819122 12.6488819122)) ((4.64888 5.64888191223 6.64888191223) (7.64888191223 8.64888191223 9.64888191223) (10.6488819122 11.6488819122 12.6488819122))
0.32	((4.52414 5.52413511276 6.52413511276) (7.52413511276 8.52413511276 9.52413511276) (10.5241351128 11.5241351128 12.5241351128)) ((4.52414 5.52413511276 6.52413511276) (7.52413511276 8.52413511276 9.52413511276) (10.5241351128 11.5241351128 12.5241351128))
0.33	((4.38153 5.3815331459 6.3815331459) (7.3815331459 8.3815331459 9.3815331459) (10.3815331459 11.3815331459 12.3815331459)) ((4.38153 5.3815331459 6.3815331459) (7.3815331459 8.3815331459 9.3815331459) (10.3815331459 11.3815331459 12.3815331459))
0.34	((4.22164 5.22163915634 6.22163915634) (7.22163915634 8.22163915634 9.22163915634) (10.2216391563 11.2216391563 12.2216391563)) ((4.22164 5.22163915634 6.22163915634) (7.22163915634 8.22163915634 9.22163915634) (10.2216391563 11.2216391563 12.2216391563))
0.35	((4.04508 5.04508495331 6.04508495331) (7.04508495331 8.04508495331 9.04508495331) (10.0450849533 11.0450849533 12.0450849533)) ((4.04508 5.04508495331 6.04508495331) (7.04508495331 8.04508495331 9.04508495331) (10.0450849533 11.0450849533 12.0450849533))
0.36	((3.85257 4.85256552696 5.85256552696) (6.85256552696 7.85256552696 8.85256552696) (9.85256552696 10.852565527 11.852565527)) ((3.85257 4.85256552696 5.85256552696) (6.85256552696 7.85256552696 8.85256552696) (9.85256552696 10.852565527 11.852565527))
0.37	((3.64484 4.6448431015 5.6448431015) (6.6448431015 7.6448431015 8.6448431015) (9.6448431015 10.6448431015 11.6448431015)) ((3.64484 4.6448431015 5.6448431015) (6.6448431015 7.6448431015 8.6448431015) (9.6448431015 10.6448431015 11.6448431015))
0.38	((3.42274 4.42273521423 5.42273521423) (6.42273521423 7.42273521423 8.42273521423) (9.42273521423 10.4227352142 11.4227352142)) ((3.42274 4.42273521423 5.42273521423) (6.42273521423 7.42273521423 8.42273521423) (9.42273521423 10.4227352142 11.4227352142))
0.39	((3.18712 4.18711972237 5.18711972237) (6.18711972237 7.18711972237 8.18711972237) (9.18711972237 10.1871197224 11.1871197224)) ((3.18712 4.18711972237 5.18711972237) (6.18711972237 7.18711972237 8.18711972237) (9.18711972237 10.1871197224 11.1871197224))
0.4	((2.93893 3.93892598152 4.93892598152) (5.93892598152 6.93892598152 7.93892598152) (8.93892598152 9.93892598152 10.9389259815)) ((2.93893 3.93892598152 4.93892598152) (5.93892598152 6.93892598152 7.93892598152) (8.93892598152 9.93892598152 10.9389259815))
0.41	((2.67913 3.67913365364 4.67913365364) (5.67913365364 6.67913365364 7.67913365364) (8.67913365364 9.67913365364 10.6791336536)) ((2.67913 3.67913365364 4.67913365364) (5.67913365364 6.67913365364 7.67913365364) (8.67913365364 9.67913365364 10.6791336536))
0.42	((2.40877 3.40876889229 4.40876889229) (5.40876889229 6.40876889229 7.40876889229) (8.40876889229 9.40876889229 10.4087688923)) ((2.40877 3.40876889229 4.40876889229) (5.40876889229 6.40876889229 7.40876889229) (8.40876889229 9.40876889229 10.4087688923))
0.43	((2.1289 3.12889575958 4.12889575958) (5.12889575958 6.12889575958 7.12889575958) (8.12889575958 9.12889575958 10.1288957596)) ((2.1289 3.12889575958 4.12889575958) (5.12889575958 6.12889575958 7.12889575958) (8.12889575958 9.12889575958 10.1288957596))
0.44	((1.84062 2.84062194824 3.84062194824) (4.84062194824 5.84062194824 6.84062194824) (7.84062194824 8.84062194824 9.84062194824)) ((1.84062 2.84062194824 3.84062194824) (4.84062194824 5.84062194824 6.84062194824) (7.84062194824 8.84062194824 9.84062194824))
0.45	((1.54509 2.54508519173 3.54508519173) (4.54508519173 5.54508519173 6.54508519173) (7.54508519173 8.54508519173 9.54508519173)) ((1.54509 2.54508519173 3.54508519173) (4.54508519173 5.54508519173 6.54508519173) (7.54508519173 8.54508519173 9.54508519173))
0.46	((1.24345 2.24344837666 3.24344837666) (4.24344837666 5.24344837666 6.24344837666) (7.24344837666 8.24344837666 9.24344837666)) ((1.24345 2.24344837666 3.24344837666) (4.24344837666 5.24344837666 6.24344837666) (7.24344837666 8.24344837666 9.24344837666))
0.47	((0.936906 1.93690645695 2.93690645695) (3.93690645695 4.93690645695 5.93690645695) (6.93690645695 7.93690645695 8.93690645695)) ((0.936906 1.93690645695 2.93690645695) (3.93690645695 4.93690645695 5.93690645695) (6.93690645695 7.93690645695 8.93690645695))
0.48	((0.626666 1.62666600943 2.62666600943) (3.62666600943 4.62666600943 5.62666600943) (6.62666600943 7.62666600943 8.62666600943)) ((0.626666 1.62666600943 2.62666600943) (3.62666600943 4.62666600943 5.62666600943) (6.62666600943 7.62666600943 8.62666600943))
0.49	((0.313952 1.31395229697 2.31395229697) (3.31395229697 4.31395229697 5.31395229697) (6.31395229697 7.31395229697 8.31395229697)) ((0.313952 1.31395229697 2.31395229697) (3.31395229697 4.31395229697 5.31395229697) (6.31395229697 7.31395229697 8.31395229697))
0.5	((-4.37114e-07 0.999999562886 1.99999956289) (2.99999956289 3.99999956289 4.99999956289) (5.99999956289 6.99999956289 7.99999956289)) ((-4.37114e-07 0.999999562886 1.99999956289) (2.99999956289 3.99999956289 4.99999956289) (5.99999956289 6.99999956289 7.99999956289))
0.51	((-0.313953 0.68604683876 1.68604683876) (2.68604683876 3.68604683876 4.68604683876) (5.68604683876 6.68604683876 7.68604683876)) ((-0.313953 0.68604683876 1.68604683876) (2.68604683876 3.68604683876 4.68604683876) (5.68604683876 6.68604683876 7.68604683876))
0.52	((-0.626666 0.373334348202 1.3733343482) (2.3733343482 3.3733343482 4.3733343482) (5.3733343482 6.3733343482 7.3733343482)) ((-0.626666 0.373334348202 1.3733343482) (2.3733343482 3.3733343482 4.3733343482) (5.3733343482 6.3733343482 7.3733343482))
0.53	((-0.936906 0.0630937814713 1.06309378147) (2.06309378147 3.06309378147 4.06309378147) (5.06309378147 6.06309378147 7.06309378147)) ((-0.936906 0.0630937814713 1.06309378147) (2.06309378147 3.06309378147 4.06309378147) (5.06309378147 6.06309378147 7.06309378147))
0.54	((-1.24345 -0.243450403214 0.756549596786) (1.75654959679 2.75654959679 3.75654959679) (4.75654959679 5.75654959679 6.75654959679)) ((-1.24345 -0.243450403214 0.756549596786) (1.75654959679 2.75654959679 3.75654959679) (4.75654959679 5.75654959679 6.75654959679))
0.55	((-1.54509 -0.545086026192 0.454913973808) (1.45491397381 2.45491397381 3.45491397381) (4.45491397381 5.45491397381 6.45491397381)) ((-1.54509 -0.545086026192 0.454913973808) (1.45491397381 2.45491397381 3.45491397381) (4.45491397381 5.45491397381 6.45491397381))
0.56	((-1.84062 -0.840622663498 0.159377336502) (1.1593773365 2.1593773365 3.1593773365) (4.1593773365 5.1593773365 6.1593773365)) ((-1.84062 -0.840622663498 0.159377336502) (1.1593773365 2.1593773365 3.1593773365) (4.1593773365 5.1593773365 6.1593773365))
0.57	((-2.1289 -1.12889647484 -0.128896474838) (0.871103525162 1.87110352516 2.87110352516) (3.87110352516 4.87110352516 5.87110352516)) ((-2.1289 -1.12889647484 -0.128896474838) (0.871103525162 1.87110352516 2.87110352516) (3.87110352516 4.87110352516 5.87110352516))
0.58	((-2.40877 -1.40876865387 -0.40876865387) (0.59123134613 1.59123134613 2.59123134613) (3.59123134613 4.59123134613 5.59123134613)) ((-2.40877 -1.40876865387 -0.40876865387) (0.59123134613 1.59123134613 2.59123134613) (3.59123134613 4.59123134613 5.59123134613))
0.59	((-2.67913 -1.67913341522 -0.679133415222) (0.320866584778 1.32086658478 2.32086658478) (3.32086658478 4.32086658478 5.32086658478)) ((-2.67913 -1.67913341522 -0.679133415222) (0.320866584778 1.32086658478 2.32086658478) (3.32086658478 4.32086658478 5.32086658478))
0.6	((-2.93893 -1.93892765045 -0.938927650452) (0.0610723495483 1.06107234955 2.06107234955) (3.06107234955 4.06107234955 5.06107234955)) ((-2.93893 -1.93892765045 -0.938927650452) (0.0610723495483 1.06107234955 2.06107234955) (3.06107234955 4.06107234955 5.06107234955))
0.61	((-3.18712 -2.18712043762 -1.18712043762) (-0.187120437622 0.812879562378 1.81287956238) (2.81287956238 3.81287956238 4.81287956238)) ((-3.18712 -2.18712043762 -1.18712043762) (-0.187120437622 0.812879562378 1.81287956238) (2.81287956238 3.81287956238 4.81287956238))
0.62	((-3.42274 -2.42273616791 -1.42273616791) (-0.422736167908 0.577263832092 1.57726383209) (2.57726383209 3.57726383209 4.57726383209)) ((-3.42274 -2.42273616791 -1.42273616791) (-0.422736167908 0.577263832092 1.57726383209) (2.57726383209 3.57726383209 4.57726383209))
0.63	((-3.64484 -2.64484357834 -1.64484357834) (-0.644843578339 0.355156421661 1.35515642166) (2.35515642166 3.35515642166 4.35515642166)) ((-3.64484 -2.64484357834 -1.64484357834) (-0.644843578339 0.355156421661 1.35515642166) (2.35515642166 3.35515642166 4.35515642166))
0.64	((-3.85257 -2.85256671906 -1.85256671906) (-0.852566719055 0.147433280945 1.14743328094) (2.14743328094 3.14743328094 4.14743328094)) ((-3.85257 -2.85256671906 -1.85256671906) (-0.852566719055 0.147433280945 1.14743328094) (2.14743328094 3.14743328094 4.14743328094))
0.65	((-4.04508 -3.04508399963 -2.04508399963) (-1.04508399963 -0.0450839996338 0.954916000366) (1.95491600037 2.95491600037 3.95491600037)) ((-4.04508 -3.04508399963 -2.04508399963) (-1.04508399963 -0.0450839996338 0.954916000366) (1.95491600037 2.95491600037 3.95491600037))
0.66	((-4.22164 -3.22164011002 -2.22164011002) (-1.22164011002 -0.221640110016 0.778359889984) (1.77835988998 2.77835988998 3.77835988998)) ((-4.22164 -3.22164011002 -2.22164011002) (-1.22164011002 -0.221640110016 0.778359889984) (1.77835988998 2.77835988998 3.77835988998))
0.67	((-4.38153 -3.38153409958 -2.38153409958) (-1.38153409958 -0.381534099579 0.618465900421) (1.61846590042 2.61846590042 3.61846590042)) ((-4.38153 -3.38153409958 -2.38153409958) (-1.38153409958 -0.381534099579 0.618465900421) (1.61846590042 2.61846590042 3.61846590042))
0.68	((-4.52414 -3.52413606644 -2.52413606644) (-1.52413606644 -0.524136066437 0.475863933563) (1.47586393356 2.47586393356 3.47586393356)) ((-4.52414 -3.52413606644 -2.52413606644) (-1.52413606644 -0.524136066437 0.475863933563) (1.47586393356 2.47586393356 3.47586393356))
0.69	((-4.64888 -3.64888286591 -2.64888286591) (-1.64888286591 -0.648882865906 0.351117134094) (1.35111713409 2.35111713409 3.35111713409)) ((-4.64888 -3.64888286591 -2.64888286591) (-1.64888286591 -0.648882865906 0.351117134094) (1.35111713409 2.35111713409 3.35111713409))
0.7	((-4.75528 -3.75528240204 -2.75528240204) (-1.75528240204 -0.755282402039 0.244717597961) (1.24471759796 2.24471759796 3.24471759796)) ((-4.75528 -3.75528240204 -2.75528240204) (-1.75528240204 -0.755282402039 0.244717597961) (1.24471759796 2.24471759796 3.24471759796))
0.71	((-4.84292 -3.84291601181 -2.84291601181) (-1.84291601181 -0.84291601181 0.15708398819) (1.15708398819 2.15708398819 3.15708398819)) ((-4.84292 -3.84291601181 -2.84291601181) (-1.84291601181 -0.84291601181 0.15708398819) (1.15708398819 2.15708398819 3.15708398819))
0.72	((-4.91144 -3.91143655777 -2.91143655777) (-1.91143655777 -0.91143655777 0.0885634422302) (1.08856344223 2.08856344223 3.08856344223)) ((-4.91144 -3.91143655777 -2.91143655777) (-1.91143655777 -0.91143655777 0.0885634422302) (1.08856344223 2.08856344223 3.08856344223))
0.73	((-4.96057 -3.96057415009 -2.96057415009) (-1.96057415009 -0.960574150085 0.0394258499146) (1.03942584991 2.03942584991 3.03942584991)) ((-4.96057 -3.96057415009 -2.96057415009) (-1.96057415009 -0.960574150085 0.0394258499146) (1.03942584991 2.03942584991 3.03942584991))
0.74	((-4.99013 -3.99013376236 -2.99013376236) (-1.99013376236 -0.99013376236 0.00986623764038) (1.00986623764 2.00986623764 3.00986623764)) ((-4.99013 -3.99013376236 -2.99013376236) (-1.99013376236 -0.99013376236 0.00986623764038) (1.00986623764 2.00986623764 3.00986623764))
0.75	((-5.0 -4.0 -3.0) (-2.0 -1.0 0.0) (1.0 2.0 3.0)) ((-5.0 -4.0 -3.0) (-2.0 -1.0 0.0) (1.0 2.0 3.0))
0.76	((-4.99013 -3.99013376236 -2.99013376236) (-1.99013376236 -0.99013376236 0.00986623764038) (1.00986623764 2.00986623764 3.00986623764)) ((-4.99013 -3.99013376236 -2.99013376236) (-1.99013376236 -0.99013376236 0.00986623764038) (1.00986623764 2.00986623764 3.00986623764))
0.77	((-4.96057 -3.96057367325 -2.96057367325) (-1.96057367325 -0.960573673248 0.0394263267517) (1.03942632675 2.03942632675 3.03942632675)) ((-4.96057 -3.96057367325 -2.96057367325) (-1.96057367325 -0.960573673248 0.0394263267517) (1.03942632675 2.03942632675 3.03942632675))
0.78	((-4.91144 -3.91143608093 -2.91143608093) (-1.91143608093 -0.911436080933 0.0885639190674) (1.08856391907 2.08856391907 3.08856391907)) ((-4.91144 -3.91143608093 -2.91143608093) (-1.91143608093 -0.911436080933 0.0885639190674) (1.08856391907 2.08856391907 3.08856391907))
0.79	((-4.84292 -3.84291553497 -2.84291553497) (-1.84291553497 -0.842915534973 0.157084465027) (1.15708446503 2.15708446503 3.15708446503)) ((-4.84292 -3.84291553497 -2.84291553497) (-1.84291553497 -0.842915534973 0.157084465027) (1.15708446503 2.15708446503 3.15708446503))
0.8	((-4.75528 -3.75528240204 -2.75528240204) (-1.75528240204 -0.755282402039 0.244717597961) (1.24471759796 2.24471759796 3.24471759796)) ((-4.75528 -3.75528240204 -2.75528240204) (-1.75528240204 -0.755282402039 0.244717597961) (1.24471759796 2.24471759796 3.24471759796))
0.81	((-4.64888 -3.64888191223 -2.64888191223) (-1.64888191223 -0.648881912231 0.351118087769) (1.35111808777 2.35111808777 3.35111808777)) ((-4.64888 -3.64888191223 -2.64888191223) (-1.64888191223 -0.648881912231 0.351118087769) (1.35111808777 2.35111808777 3.35111808777))
0.82	((-4.52414 -3.52413511276 -2.52413511276) (-1.52413511276 -0.524135112762 0.475864887238) (1.47586488724 2.47586488724 3.47586488724)) ((-4.52414 -3.52413511276 -2.52413511276) (-1.52413511276 -0.524135112762 0.475864887238) (1.47586488724 2.47586488724 3.47586488724))
0.83	((-4.38153 -3.3815331459 -2.3815331459) (-1.3815331459 -0.381533145905 0.618466854095) (1.6184668541 2.6184668541 3.6184668541)) ((-4.38153 -3.3815331459 -2.3815331459) (-1.3815331459 -0.381533145905 0.618466854095) (1.6184668541 2.6184668541 3.6184668541))
0.84	((-4.22164 -3.22164011002 -2.22164011002) (-1.22164011002 -0.221640110016 0.778359889984) (1.77835988998 2.77835988998 3.77835988998)) ((-4.22164 -3.22164011002 -2.22164011002) (-1.22164011002 -0.221640110016 0.778359889984) (1.77835988998 2.77835988998 3.77835988998))
0.85	((-4.04508 -3.04508399963 -2.04508399963) (-1.04508399963 -0.0450839996338 0.954916000366) (1.95491600037 2.95491600037 3.95491600037)) ((-4.04508 -3.04508399963 -2.04508399963) (-1.04508399963 -0.0450839996338 0.954916000366) (1.95491600037 2.95491600037 3.95491600037))
0.86	((-3.85257 -2.85256528854 -1.85256528854) (-0.852565288544 0.147434711456 1.14743471146) (2.14743471146 3.14743471146 4.14743471146)) ((-3.85257 -2.85256528854 -1.85256528854) (-0.852565288544 0.147434711456 1.14743471146) (2.14743471146 3.14743471146 4.14743471146))
0.87	((-3.64484 -2.64484190941 -1.64484190941) (-0.644841909409 0.355158090591 1.35515809059) (2.35515809059 3.35515809059 4.35515809059)) ((-3.64484 -2.64484190941 -1.64484190941) (-0.644841909409 0.355158090591 1.35515809059) (2.35515809059 3.35515809059 4.35515809059))
0.88	((-3.42273 -2.42273426056 -1.42273426056) (-0.422734260559 0.577265739441 1.57726573944) (2.57726573944 3.57726573944 4.57726573944)) ((-3.42273 -2.42273426056 -1.42273426056) (-0.422734260559 0.577265739441 1.57726573944) (2.57726573944 3.57726573944 4.57726573944))
0.89	((-3.18712 -2.1871201992 -1.1871201992) (-0.187120199203 0.812879800797 1.8128798008) (2.8128798008 3.8128798008 4.8128798008)) ((-3.18712 -2.1871201992 -1.1871201992) (-0.187120199203 0.812879800797 1.8128798008) (2.8128798008 3.8128798008 4.8128798008))
0.9	((-2.93893 -1.93892645836 -0.938926458359) (0.0610735416412 1.06107354164 2.06107354164) (3.06107354164 4.06107354164 5.06107354164)) ((-2.93893 -1.93892645836 -0.938926458359) (0.0610735416412 1.06107354164 2.06107354164) (3.06107354164 4.06107354164 5.06107354164))
0.91	((-2.67913 -1.67913222313 -0.679132223129) (0.320867776871 1.32086777687 2.32086777687) (3.32086777687 4.32086777687 5.32086777687)) ((-2.67913 -1.67913222313 -0.679132223129) (0.320867776871 1.32086777687 2.32086777687) (3.32086777687 4.32086777687 5.32086777687))
0.92	((-2.40877 -1.4087665081 -0.408766508102) (0.591233491898 1.5912334919 2.5912334919) (3.5912334919 4.5912334919 5.5912334919)) ((-2.40877 -1.4087665081 -0.408766508102) (0.591233491898 1.5912334919 2.5912334919) (3.5912334919 4.5912334919 5.5912334919))
0.93	((-2.1289 -1.12889647484 -0.128896474838) (0.871103525162 1.87110352516 2.87110352516) (3.87110352516 4.87110352516 5.87110352516)) ((-2.1289 -1.12889647484 -0.128896474838) (0.871103525162 1.87110352516 2.87110352516) (3.87110352516 4.87110352516 5.87110352516))
0.94	((-1.84062 -0.840622663498 0.159377336502) (1.1593773365 2.1593773365 3.1593773365) (4.1593773365 5.1593773365 6.1593773365)) ((-1.84062 -0.840622663498 0.159377336502) (1.1593773365 2.1593773365 3.1593773365) (4.1593773365 5.1593773365 6.1593773365))
0.95	((-1.54508 -0.54508471489 0.45491528511) (1.45491528511 2.45491528511 3.45491528511) (4.45491528511 5.45491528511 6.45491528511)) ((-1.54508 -0.54508471489 0.45491528511) (1.45491528511 2.45491528511 3.45491528511) (4.45491528511 5.45491528511 6.45491528511))
0.96	((-1.24345 -0.243449091911 0.756550908089) (1.75655090809 2.75655090809 3.75655090809) (4.75655090809 5.75655090809 6.75655090809)) ((-1.24345 -0.243449091911 0.756550908089) (1.75655090809 2.75655090809 3.75655090809) (4.75655090809 5.75655090809 6.75655090809))
0.97	((-0.936904 0.0630962848663 1.06309628487) (2.06309628487 3.06309628487 4.06309628487) (5.06309628487 6.06309628487 7.06309628487)) ((-0.936904 0.0630962848663 1.06309628487) (2.06309628487 3.06309628487 4.06309628487) (5.06309628487 6.06309628487 7.06309628487))
0.98	((-0.626666 0.373334407806 1.37333440781) (2.37333440781 3.37333440781 4.37333440781) (5.37333440781 6.37333440781 7.37333440781)) ((-0.626666 0.373334407806 1.37333440781) (2.37333440781 3.37333440781 4.37333440781) (5.37333440781 6.37333440781 7.37333440781))
0.99	((-0.313952 0.686048150063 1.68604815006) (2.68604815006 3.68604815006 4.68604815006) (5.68604815006 6.68604815006 7.68604815006)) ((-0.313952 0.686048150063 1.68604815006) (2.68604815006 3.68604815006 4.68604815006) (5.68604815006 6.68604815006 7.68604815006))
1.0	((8.74228e-07 1.00000087423 2.00000087423) (3.00000087423 4.00000087423 5.00000087423) (6.00000087423 7.00000087423 8.00000087423)) ((8.74228e-07 1.00000087423 2.00000087423) (3.00000087423 4.00000087423 5.00000087423) (6.00000087423 7.00000087423 8.00000087423))
1.01	((0.313954 1.31395360827 2.31395360827) (3.31395360827 4.31395360827 5.31395360827) (6.31395360827 7.31395360827 8.31395360827)) ((0.313954 1.31395360827 2.31395360827) (3.31395360827 4.31395360827 5.31395360827) (6.31395360827 7.31395360827 8.31395360827))
1.02	((0.626667 1.62666726112 2.62666726112) (3.62666726112 4.62666726112 5.62666726112) (6.62666726112 7.62666726112 8.62666726112)) ((0.626667 1.62666726112 2.62666726112) (3.62666726112 4.62666726112 5.62666726112) (6.62666726112 7.62666726112 8.62666726112))
1.03	((0.936905 1.93690544367 2.93690544367) (3.93690544367 4.93690544367 5.93690544367) (6.93690544367 7.93690544367 8.93690544367)) ((0.936905 1.93690544367 2.93690544367) (3.93690544367 4.93690544367 5.93690544367) (6.93690544367 7.93690544367 8.93690544367))
1.04	((1.24345 2.24344849586 3.24344849586) (4.24344849586 5.24344849586 6.24344849586) (7.24344849586 8.24344849586 9.24344849586)) ((1.24345 2.24344849586 3.24344849586) (4.24344849586 5.24344849586 6.24344849586) (7.24344849586 8.24344849586 9.24344849586))
1.05	((1.54508 2.54508411884 3.54508411884) (4.54508411884 5.54508411884 6.54508411884) (7.54508411884 8.54508411884 9.54508411884)) ((1.54508 2.54508411884 3.54508411884) (4.54508411884 5.54508411884 6.54508411884) (7.54508411884 8.54508411884 9.54508411884))
1.06	((1.84062 2.84062218666 3.84062218666) (4.84062218666 5.84062218666 6.84062218666) (7.84062218666 8.84062218666 9.84062218666)) ((1.84062 2.84062218666 3.84062218666) (4.84062218666 5.84062218666 6.84062218666) (7.84062218666 8.84062218666 9.84062218666))
1.07	((2.1289 3.12889814377 4.12889814377) (5.12889814377 6.12889814377 7.12889814377) (8.12889814377 9.12889814377 10.1288981438)) ((2.1289 3.12889814377 4.12889814377) (5.12889814377 6.12889814377 7.12889814377) (8.12889814377 9.12889814377 10.1288981438))
1.08	((2.40877 3.40877008438 4.40877008438) (5.40877008438 6.40877008438 7.40877008438) (8.40877008438 9.40877008438 10.4087700844)) ((2.40877 3.40877008438 4.40877008438) (5.40877008438 6.40877008438 7.40877008438) (8.40877008438 9.40877008438 10.4087700844))
1.09	((2.67914 3.67913579941 4.67913579941) (5.67913579941 6.67913579941 7.67913579941) (8.67913579941 9.67913579941 10.6791357994)) ((2.67914 3.67913579941 4.67913579941) (5.67913579941 6.67913579941 7.67913579941) (8.67913579941 9.67913579941 10.6791357994))
1.1	((2.93893 3.93892812729 4.93892812729) (5.93892812729 6.93892812729 7.93892812729) (8.93892812729 9.93892812729 10.9389281273)) ((2.93893 3.93892812729 4.93892812729) (5.93892812729 6.93892812729 7.93892812729) (8.93892812729 9.93892812729 10.9389281273))
1.11	((3.18712 4.18712186813 5.18712186813) (6.18712186813 7.18712186813 8.18712186813) (9.18712186813 10.1871218681 11.1871218681)) ((3.18712 4.18712186813 5.18712186813) (6.18712186813 7.18712186813 8.18712186813) (9.18712186813 10.1871218681 11.1871218681))
1.12	((3.42274 4.42273569107 5.42273569107) (6.42273569107 7.42273569107 8.42273569107) (9.42273569107 10.4227356911 11.4227356911)) ((3.42274 4.42273569107 5.42273569107) (6.42273569107 7.42273569107 8.42273569107) (9.42273569107 10.4227356911 11.4227356911))
1.13	((3.64484 4.6448431015 5.6448431015) (6.6448431015 7.6448431015 8.6448431015) (9.6448431015 10.6448431015 11.6448431015)) ((3.64484 4.6448431015 5.6448431015) (6.6448431015 7.6448431015 8.6448431015) (9.6448431015 10.6448431015 11.6448431015))