# Force          
# CofR           : 0.0000000000e+00 0.0000000000e+00 0.0000000000e+00
#                
# Time           	total_x total_y total_z	(pressure_x pressure_y pressure_z)	(viscous_x viscous_y viscous_z)
2.701            	-1.9941982994e-02 -6.0004048057e-02 2.5854839672e-01	(-2.2275794021e-02 -6.1473876051e-02 2.5717576188e-01)	(2.3338110277e-03 1.4698279942e-03 1.3726348407e-03)
2.702            	-2.0879231419e-02 -5.9170379486e-02 2.5575797967e-01	(-2.3208505054e-02 -6.0643097765e-02 2.5438564936e-01)	(2.3292736352e-03 1.4727182789e-03 1.3723303085e-03)
2.703            	-2.1160897712e-02 -5.8919377572e-02 2.5572949151e-01	(-2.3485158237e-02 -6.0395014199e-02 2.5435760966e-01)	(2.3242605250e-03 1.4756366265e-03 1.3718818488e-03)
2.704            	-2.1380522659e-02 -5.8865602972e-02 2.5627240384e-01	(-2.3699636778e-02 -6.0344078173e-02 2.5490106083e-01)	(2.3191141195e-03 1.4784752013e-03 1.3713430134e-03)
2.705            	-2.2339465492e-02 -5.8280452619e-02 2.5472591353e-01	(-2.4651156514e-02 -5.9761347053e-02 2.5335558248e-01)	(2.3116910219e-03 1.4808944334e-03 1.3703310538e-03)
2.706            	-2.1615706667e-02 -5.9113752979e-02 2.5880659323e-01	(-2.3922791548e-02 -6.0597491827e-02 2.5743661222e-01)	(2.3070848813e-03 1.4837388477e-03 1.3699810151e-03)
2.707            	-2.1944609846e-02 -5.8724524459e-02 2.5824643589e-01	(-2.4246450481e-02 -6.0211130780e-02 2.5687703338e-01)	(2.3018406348e-03 1.4866063207e-03 1.3694025077e-03)
2.708            	-2.3445768005e-02 -5.7476714819e-02 2.5398394611e-01	(-2.5738470896e-02 -5.8965453464e-02 2.5261611271e-01)	(2.2927028912e-03 1.4887386447e-03 1.3678334001e-03)
2.709            	-2.1720246638e-02 -5.9086532351e-02 2.6151669704e-01	(-2.4009462054e-02 -6.0578507740e-02 2.6014904536e-01)	(2.2892154159e-03 1.4919753891e-03 1.3676516787e-03)
2.71             	-2.2416095591e-02 -5.8689290468e-02 2.6065724520e-01	(-2.4700326364e-02 -6.0184207610e-02 2.5929018338e-01)	(2.2842307730e-03 1.4949171414e-03 1.3670618208e-03)
2.711            	-2.2523921335e-02 -5.8699123128e-02 2.6157999165e-01	(-2.4803319013e-02 -6.0197031237e-02 2.6021353224e-01)	(2.2793976772e-03 1.4979081085e-03 1.3664594025e-03)
2.712            	-2.2726901359e-02 -5.8617750559e-02 2.6198636425e-01	(-2.5001471009e-02 -6.0118529068e-02 2.6062063849e-01)	(2.2745696504e-03 1.5007785094e-03 1.3657257591e-03)
2.713            	-2.3058186237e-02 -5.8363604971e-02 2.6208155796e-01	(-2.5327318822e-02 -5.9867382242e-02 2.6071665940e-01)	(2.2691325848e-03 1.5037772710e-03 1.3648985658e-03)
2.714            	-2.3837531421e-02 -5.7818194458e-02 2.6104050826e-01	(-2.6099448593e-02 -5.9324997601e-02 2.5967672943e-01)	(2.2619171722e-03 1.5068031427e-03 1.3637788258e-03)
2.715            	-2.3128369609e-02 -5.8398541593e-02 2.6399328754e-01	(-2.5385712898e-02 -5.9908462310e-02 2.6263024031e-01)	(2.2573432889e-03 1.5099207167e-03 1.3630472264e-03)
2.716            	-2.3455842040e-02 -5.8223217454e-02 2.6422627759e-01	(-2.5708206549e-02 -5.9736278898e-02 2.6286403932e-01)	(2.2523645086e-03 1.5130614435e-03 1.3622382689e-03)
2.717            	-2.3679022083e-02 -5.8126047715e-02 2.6473799076e-01	(-2.5926186914e-02 -5.9642215427e-02 2.6337662133e-01)	(2.2471648313e-03 1.5161677115e-03 1.3613694235e-03)
2.718            	-2.4955377085e-02 -5.7464586651e-02 2.6207640095e-01	(-2.7194248202e-02 -5.8982512884e-02 2.6071677546e-01)	(2.2388711169e-03 1.5179262329e-03 1.3596254823e-03)
2.719            	-2.3437702309e-02 -5.8220489012e-02 2.6742196959e-01	(-2.5673170476e-02 -5.9742312865e-02 2.6606273260e-01)	(2.2354681672e-03 1.5218238532e-03 1.3592369915e-03)
2.72             	-2.4067741121e-02 -5.7881871923e-02 2.6658030397e-01	(-2.6298514749e-02 -5.9406984565e-02 2.6522190186e-01)	(2.2307736286e-03 1.5251126415e-03 1.3584021087e-03)
2.721            	-2.5237224840e-02 -5.6863250564e-02 2.6357350300e-01	(-2.7460238570e-02 -5.8391441478e-02 2.6221659113e-01)	(2.2230137304e-03 1.5281909140e-03 1.3569118662e-03)
2.722            	-2.4395891912e-02 -5.8289215084e-02 2.6994696045e-01	(-2.6614556676e-02 -5.9820678878e-02 2.6859058978e-01)	(2.2186647641e-03 1.5314637943e-03 1.3563706758e-03)
2.723            	-2.5071127108e-02 -5.7588534132e-02 2.6783327579e-01	(-2.7283747092e-02 -5.9122808503e-02 2.6647802199e-01)	(2.2126199835e-03 1.5342743705e-03 1.3552537926e-03)
2.724            	-2.4509878842e-02 -5.7897643703e-02 2.7045486882e-01	(-2.6718535117e-02 -5.9435343199e-02 2.6910024578e-01)	(2.2086562750e-03 1.5376994968e-03 1.3546230457e-03)
2.725            	-2.4766122939e-02 -5.7759808384e-02 2.7075012663e-01	(-2.6970546296e-02 -5.9300795909e-02 2.6939624466e-01)	(2.2044233574e-03 1.5409875247e-03 1.3538819657e-03)
2.726            	-2.5233442524e-02 -5.7706366463e-02 2.7132987312e-01	(-2.7432775130e-02 -5.9250530417e-02 2.6997680310e-01)	(2.1993326058e-03 1.5441639537e-03 1.3530700223e-03)
2.727            	-2.5221424403e-02 -5.7623700434e-02 2.7172372486e-01	(-2.7416075185e-02 -5.9170795717e-02 2.7037154032e-01)	(2.1946507818e-03 1.5470952824e-03 1.3521845361e-03)
2.728            	-2.6566302890e-02 -5.6364196283e-02 2.6789500908e-01	(-2.8752791094e-02 -5.7914125590e-02 2.6654442049e-01)	(2.1864882041e-03 1.5499293069e-03 1.3505885942e-03)
2.729            	-2.5119859236e-02 -5.7970655949e-02 2.7556708216e-01	(-2.7302986495e-02 -5.9524049263e-02 2.7421681192e-01)	(2.1831272589e-03 1.5533933146e-03 1.3502702303e-03)
2.73             	-2.5601762856e-02 -5.7492125962e-02 2.7442996462e-01	(-2.7780647385e-02 -5.9048733103e-02 2.7308037905e-01)	(2.1788845282e-03 1.5566071410e-03 1.3495855668e-03)
2.731            	-2.5863268248e-02 -5.7410140972e-02 2.7513581282e-01	(-2.8037614200e-02 -5.8969975122e-02 2.7378691314e-01)	(2.1743459520e-03 1.5598341506e-03 1.3488996858e-03)
2.732            	-2.6026526968e-02 -5.7212690997e-02 2.7538866843e-01	(-2.8196273879e-02 -5.8775790631e-02 2.7404051215e-01)	(2.1697469104e-03 1.5630996345e-03 1.3481562848e-03)
2.733            	-2.6210965655e-02 -5.6973238598e-02 2.7548657210e-01	(-2.8375997627e-02 -5.8539638636e-02 2.7413920949e-01)	(2.1650319716e-03 1.5664000374e-03 1.3473626034e-03)
2.734            	-2.7453974032e-02 -5.5858830200e-02 2.7161769114e-01	(-2.9611297838e-02 -5.7427946608e-02 2.7027192999e-01)	(2.1573238066e-03 1.5691164074e-03 1.3457611445e-03)
2.735            	-2.6128580068e-02 -5.7388994910e-02 2.7915023876e-01	(-2.8282620188e-02 -5.8961494309e-02 2.7780481460e-01)	(2.1540401199e-03 1.5724993987e-03 1.3454241600e-03)
2.736            	-2.6398745305e-02 -5.7060618701e-02 2.7891808549e-01	(-2.8549077032e-02 -5.8636570978e-02 2.7757318048e-01)	(2.1503317264e-03 1.5759522769e-03 1.3449050161e-03)
2.737            	-2.6734512371e-02 -5.6819346058e-02 2.7898419495e-01	(-2.8880556078e-02 -5.8398712779e-02 2.7763996779e-01)	(2.1460437071e-03 1.5793667204e-03 1.3442271617e-03)
2.738            	-2.6869300977e-02 -5.6670102144e-02 2.7932857754e-01	(-2.9011107213e-02 -5.8252818254e-02 2.7798511555e-01)	(2.1418062359e-03 1.5827161096e-03 1.3434619920e-03)
2.739            	-2.7857804593e-02 -5.6024893503e-02 2.7740137680e-01	(-2.9992991680e-02 -5.7610361920e-02 2.7605923670e-01)	(2.1351870878e-03 1.5854684168e-03 1.3421400938e-03)
2.74             	-2.7318217402e-02 -5.6321698692e-02 2.8013982873e-01	(-2.9448787161e-02 -5.7910598300e-02 2.7879849929e-01)	(2.1305697588e-03 1.5888996080e-03 1.3413294442e-03)
2.741            	-2.7091139903e-02 -5.6550202818e-02 2.8207770151e-01	(-2.9218271429e-02 -5.8142623074e-02 2.8073698056e-01)	(2.1271315266e-03 1.5924202560e-03 1.3407209456e-03)
2.742            	-2.7511737104e-02 -5.6256521214e-02 2.8195807488e-01	(-2.9634689380e-02 -5.7852421839e-02 2.8061813492e-01)	(2.1229522755e-03 1.5959006249e-03 1.3399399592e-03)
2.743            	-2.7496918823e-02 -5.6361444856e-02 2.8346119837e-01	(-2.9616215469e-02 -5.7960930195e-02 2.8212191987e-01)	(2.1192966460e-03 1.5994853385e-03 1.3392785045e-03)
2.744            	-2.8464402631e-02 -5.5572672982e-02 2.8104874198e-01	(-3.0577630270e-02 -5.7175298740e-02 2.7971072433e-01)	(2.1132276385e-03 1.6026257578e-03 1.3380176457e-03)
2.745            	-2.7692618706e-02 -5.6222842815e-02 2.8509531067e-01	(-2.9802470250e-02 -5.7829096503e-02 2.8375790698e-01)	(2.1098515440e-03 1.6062536872e-03 1.3374036855e-03)
2.746            	-2.8055123191e-02 -5.6004858090e-02 2.8516980305e-01	(-3.0161019149e-02 -5.7614595493e-02 2.8383319302e-01)	(2.1058959577e-03 1.6097374023e-03 1.3366100266e-03)
2.747            	-2.8219859339e-02 -5.5959114482e-02 2.8605614982e-01	(-3.0321758222e-02 -5.7572292051e-02 2.8472033057e-01)	(2.1018988829e-03 1.6131775693e-03 1.3358192506e-03)
2.748            	-2.8951943156e-02 -5.5104335617e-02 2.8377525312e-01	(-3.1048019332e-02 -5.6720995105e-02 2.8244067789e-01)	(2.0960761763e-03 1.6166594878e-03 1.3345752379e-03)
2.749            	-2.8272236598e-02 -5.5841057891e-02 2.8786428038e-01	(-3.0365045892e-02 -5.7461249540e-02 2.8653039445e-01)	(2.0928092934e-03 1.6201916493e-03 1.3338859282e-03)
2.75             	-2.8700692438e-02 -5.5318184408e-02 2.8683966446e-01	(-3.0789375705e-02 -5.6941893648e-02 2.8550674003e-01)	(2.0886832673e-03 1.6237092394e-03 1.3329244282e-03)
2.751            	-2.8660958258e-02 -5.5375210602e-02 2.8818245329e-01	(-3.0746149865e-02 -5.7002493928e-02 2.8685037400e-01)	(2.0851916066e-03 1.6272833263e-03 1.3320792848e-03)
2.752            	-2.9105467541e-02 -5.5064922448e-02 2.8804434462e-01	(-3.1186288965e-02 -5.6695740128e-02 2.8671326073e-01)	(2.0808214247e-03 1.6308176804e-03 1.3310838950e-03)
2.753            	-2.9756927772e-02 -5.4079952364e-02 2.8475599058e-01	(-3.1831857195e-02 -5.5714019219e-02 2.8342647933e-01)	(2.0749294225e-03 1.6340668546e-03 1.3295112573e-03)
2.754            	-2.8931181637e-02 -5.5763471019e-02 2.9305360164e-01	(-3.1003469197e-02 -5.7400898210e-02 2.9172451470e-01)	(2.0722875602e-03 1.6374271904e-03 1.3290869420e-03)
2.755            	-3.0115289822e-02 -5.4602694020e-02 2.8823337528e-01	(-3.2181752885e-02 -5.6242141098e-02 2.8690582250e-01)	(2.0664630632e-03 1.6394470781e-03 1.3275527820e-03)
2.756            	-2.9243593107e-02 -5.5184014592e-02 2.9300394805e-01	(-3.1307243301e-02 -5.6827010337e-02 2.9167694579e-01)	(2.0636501946e-03 1.6429957452e-03 1.3270022607e-03)
2.757            	-2.9760709679e-02 -5.4641348513e-02 2.9170339182e-01	(-3.1820488019e-02 -5.6287584615e-02 2.9037728760e-01)	(2.0597783397e-03 1.6462361024e-03 1.3261042270e-03)
2.758            	-2.9719535769e-02 -5.4612048770e-02 2.9281203686e-01	(-3.1775906204e-02 -5.6261593196e-02 2.9148674960e-01)	(2.0563704346e-03 1.6495444262e-03 1.3252872585e-03)
2.759            	-3.0938138490e-02 -5.3378797250e-02 2.8853826797e-01	(-3.2987961169e-02 -5.5031311647e-02 2.8721453708e-01)	(2.0498226786e-03 1.6525143974e-03 1.3237308869e-03)
2.76             	-2.9867470721e-02 -5.4488419753e-02 2.9475573263e-01	(-3.1914448788e-02 -5.6144265554e-02 2.9343261733e-01)	(2.0469780668e-03 1.6558458007e-03 1.3231153010e-03)
2.761            	-2.9790491252e-02 -5.4513098912e-02 2.9614763835e-01	(-3.1835228641e-02 -5.6172392386e-02 2.9482497452e-01)	(2.0447373891e-03 1.6592934742e-03 1.3226638248e-03)
2.762            	-2.9991162808e-02 -5.4259139654e-02 2.9610098564e-01	(-3.2033450538e-02 -5.5921756151e-02 2.9477895172e-01)	(2.0422877301e-03 1.6626164975e-03 1.3220339250e-03)
2.763            	-3.1299049192e-02 -5.3126310273e-02 2.9191329963e-01	(-3.3335560209e-02 -5.4791554648e-02 2.9059273537e-01)	(2.0365110165e-03 1.6652443748e-03 1.3205642610e-03)
2.764            	-3.0140157508e-02 -5.4210444246e-02 2.9842959125e-01	(-3.2174666392e-02 -5.5879024204e-02 2.9710943140e-01)	(2.0345088836e-03 1.6685799581e-03 1.3201598589e-03)
2.765            	-3.0473775726e-02 -5.3773664313e-02 2.9760777059e-01	(-3.2505728354e-02 -5.5445443036e-02 2.9628828109e-01)	(2.0319526286e-03 1.6717787223e-03 1.3194895024e-03)
2.766            	-3.0554964169e-02 -5.3808701055e-02 2.9875783667e-01	(-3.2584504888e-02 -5.5483616991e-02 2.9743899431e-01)	(2.0295407195e-03 1.6749159363e-03 1.3188423541e-03)
2.767            	-3.0536130237e-02 -5.3548271679e-02 2.9886892465e-01	(-3.2563657623e-02 -5.5226275542e-02 2.9755081665e-01)	(2.0275273866e-03 1.6780038627e-03 1.3181079971e-03)
2.768            	-3.0838757881e-02 -5.3385373746e-02 2.9955535097e-01	(-3.2863802234e-02 -5.5066559409e-02 2.9823798360e-01)	(2.0250443530e-03 1.6811856633e-03 1.3173673751e-03)
2.769            	-3.0974826505e-02 -5.3253841525e-02 3.0023330689e-01	(-3.2997295432e-02 -5.4938191999e-02 2.9891670028e-01)	(2.0224689267e-03 1.6843504734e-03 1.3166066131e-03)
2.77             	-3.1100311096e-02 -5.3011052527e-02 3.0043226756e-01	(-3.3120239800e-02 -5.4698605661e-02 2.9911650792e-01)	(2.0199287042e-03 1.6875531341e-03 1.3157596389e-03)
2.771            	-3.1188225059e-02 -5.2859846133e-02 3.0102682876e-01	(-3.3205748843e-02 -5.4550567562e-02 2.9971190075e-01)	(2.0175237837e-03 1.6907214285e-03 1.3149280120e-03)
2.772            	-3.1333711092e-02 -5.2601893045e-02 3.0116319628e-01	(-3.3348753300e-02 -5.4295791605e-02 2.9984917189e-01)	(2.0150422078e-03 1.6938985596e-03 1.3140243888e-03)
2.773            	-3.1471995465e-02 -5.2617748622e-02 3.0244333696e-01	(-3.3484620501e-02 -5.4314743932e-02 3.0113013689e-01)	(2.0126250354e-03 1.6969953102e-03 1.3132000748e-03)
2.774            	-3.2358445394e-02 -5.2006611653e-02 3.0063048588e-01	(-3.4366412267e-02 -5.3706237104e-02 2.9931861896e-01)	(2.0079668729e-03 1.6996254514e-03 1.3118669213e-03)
2.775            	-3.1862787143e-02 -5.2161494849e-02 3.0314239932e-01	(-3.3867994545e-02 -5.3864335994e-02 3.0183137226e-01)	(2.0052074025e-03 1.7028411446e-03 1.3110270531e-03)
2.776            	-3.1741365076e-02 -5.2181114285e-02 3.0435627561e-01	(-3.3744579086e-02 -5.3887055102e-02 3.0304605104e-01)	(2.0032140099e-03 1.7059408165e-03 1.3102245681e-03)
2.777            	-3.2495465507e-02 -5.1211354181e-02 3.0113059808e-01	(-3.4494740393e-02 -5.2920273861e-02 2.9982176669e-01)	(1.9992748869e-03 1.7089196798e-03 1.3088313899e-03)
2.778            	-3.2435656966e-02 -5.1793541988e-02 3.0578773499e-01	(-3.4431924397e-02 -5.3505802314e-02 3.0447966033e-01)	(1.9962674316e-03 1.7122603265e-03 1.3080746641e-03)
2.779            	-3.2233658233e-02 -5.1804593341e-02 3.0632638767e-01	(-3.4227778407e-02 -5.3519668214e-02 3.0501915136e-01)	(1.9941201747e-03 1.7150748731e-03 1.3072363109e-03)
2.78             	-3.1933960494e-02 -5.1904153088e-02 3.0851501979e-01	(-3.3927120269e-02 -5.3622410246e-02 3.0720839133e-01)	(1.9931597747e-03 1.7182571586e-03 1.3066284646e-03)
2.781            	-3.2374664994e-02 -5.1403132362e-02 3.0749524888e-01	(-3.4365887700e-02 -5.3124441592e-02 3.0618951349e-01)	(1.9912227062e-03 1.7213092301e-03 1.3057353936e-03)
2.782            	-3.3111332314e-02 -5.0449691151e-02 3.0410054841e-01	(-3.5098789964e-02 -5.2173697786e-02 3.0279632949e-01)	(1.9874576501e-03 1.7240066358e-03 1.3042189202e-03)
2.783            	-3.2451986632e-02 -5.1296733131e-02 3.0987860996e-01	(-3.4438026878e-02 -5.3023803462e-02 3.0857507834e-01)	(1.9860402462e-03 1.7270703307e-03 1.3035316113e-03)
2.784            	-3.2581733139e-02 -5.1147219887e-02 3.1043103730e-01	(-3.4566334029e-02 -5.2877287406e-02 3.0912828168e-01)	(1.9846008898e-03 1.7300675188e-03 1.3027556216e-03)
2.785            	-3.2695761180e-02 -5.0796154845e-02 3.1014951050e-01	(-3.4678827356e-02 -5.2529161790e-02 3.0884765313e-01)	(1.9830661759e-03 1.7330069456e-03 1.3018573682e-03)
2.786            	-3.3693739069e-02 -4.9560881795e-02 3.0526144916e-01	(-3.5672642127e-02 -5.1296354267e-02 3.0396134599e-01)	(1.9789030577e-03 1.7354724719e-03 1.3001031695e-03)
2.787            	-3.2663120293e-02 -5.0627910367e-02 3.1224052274e-01	(-3.4641299993e-02 -5.2366377973e-02 3.1094108737e-01)	(1.9781797007e-03 1.7384676064e-03 1.2994353749e-03)
2.788            	-3.3493215850e-02 -5.0022339434e-02 3.0976113291e-01	(-3.5468616119e-02 -5.1762742609e-02 3.0846306801e-01)	(1.9754002688e-03 1.7404031754e-03 1.2980649050e-03)
2.789            	-3.2835326804e-02 -5.0149196366e-02 3.1336336541e-01	(-3.4810078996e-02 -5.1893147791e-02 3.1206587078e-01)	(1.9747521924e-03 1.7439514244e-03 1.2974946348e-03)
2.79             	-3.2980056732e-02 -4.9962507823e-02 3.1335946227e-01	(-3.4954087640e-02 -5.1709476263e-02 3.1206278891e-01)	(1.9740309082e-03 1.7469684396e-03 1.2966733660e-03)
2.791            	-3.3140274582e-02 -4.9714166603e-02 3.1359268934e-01	(-3.5113398052e-02 -5.1464104057e-02 3.1229688684e-01)	(1.9731234703e-03 1.7499374547e-03 1.2958024974e-03)
2.792            	-3.3228439203e-02 -4.9575731257e-02 3.1454964732e-01	(-3.5200650319e-02 -5.1328723193e-02 3.1325468959e-01)	(1.9722111154e-03 1.7529919352e-03 1.2949577280e-03)
2.793            	-3.4155982620e-02 -4.8715442828e-02 3.1135378392e-01	(-3.6124767847e-02 -5.0470917570e-02 3.1006031602e-01)	(1.9687852268e-03 1.7554747424e-03 1.2934679010e-03)
2.794            	-3.3358517123e-02 -4.9281909351e-02 3.1604045104e-01	(-3.5326569062e-02 -5.1040371994e-02 3.1474775788e-01)	(1.9680519387e-03 1.7584626429e-03 1.2926931628e-03)
2.795            	-3.3528665163e-02 -4.8990624938e-02 3.1609187819e-01	(-3.5495740467e-02 -5.0752068936e-02 3.1480005587e-01)	(1.9670753042e-03 1.7614439984e-03 1.2918223242e-03)
2.796            	-3.3850610623e-02 -4.8605695480e-02 3.1555291241e-01	(-3.5816115783e-02 -5.0369973580e-02 3.1426220035e-01)	(1.9655051607e-03 1.7642780998e-03 1.2907120639e-03)
2.797            	-3.3874517850e-02 -4.8717402534e-02 3.1757507978e-01	(-3.5838757664e-02 -5.0484479872e-02 3.1628530004e-01)	(1.9642398146e-03 1.7670773377e-03 1.2897797410e-03)
2.798            	-3.4167311144e-02 -4.8465538814e-02 3.1780044334e-01	(-3.6129668014e-02 -5.0235399207e-02 3.1651175261e-01)	(1.9623568698e-03 1.7698603931e-03 1.2886907285e-03)
2.799            	-3.4051811932e-02 -4.8237614479e-02 3.1821628515e-01	(-3.6012863559e-02 -5.0010311978e-02 3.1692867277e-01)	(1.9610516271e-03 1.7726974985e-03 1.2876123773e-03)
2.8              	-3.4571939873e-02 -4.7633288421e-02 3.1672610052e-01	(-3.6530445570e-02 -4.9408766510e-02 3.1543989050e-01)	(1.9585056967e-03 1.7754780884e-03 1.2862100164e-03)
2.801            	-3.4305712609e-02 -4.8153646707e-02 3.2026566393e-01	(-3.6262953928e-02 -4.9931587272e-02 3.1898050383e-01)	(1.9572413190e-03 1.7779405645e-03 1.2851601061e-03)
2.802            	-3.4455356897e-02 -4.7521721835e-02 3.1909877691e-01	(-3.6411079358e-02 -4.9302355913e-02 3.1781489488e-01)	(1.9557224601e-03 1.7806340781e-03 1.2838820335e-03)
2.803            	-3.4485130035e-02 -4.7518973471e-02 3.2065594397e-01	(-3.6439559680e-02 -4.9302301617e-02 3.1937322101e-01)	(1.9544296450e-03 1.7833281465e-03 1.2827229685e-03)
2.804            	-3.5036444791e-02 -4.6179023860e-02 3.1513905700e-01	(-3.6988021808e-02 -4.7964914403e-02 3.1385836426e-01)	(1.9515770174e-03 1.7858905428e-03 1.2806927393e-03)
2.805            	-3.4405111819e-02 -4.7603300599e-02 3.2453111464e-01	(-3.6356372613e-02 -4.9392033466e-02 3.2325118878e-01)	(1.9512607946e-03 1.7887328674e-03 1.2799258639e-03)
2.806            	-3.5286102634e-02 -4.6599746723e-02 3.2031638001e-01	(-3.7234646193e-02 -4.8390728122e-02 3.1903809392e-01)	(1.9485435590e-03 1.7909813999e-03 1.2782860852e-03)
2.807            	-3.5439493240e-02 -4.5869376941e-02 3.1847914866e-01	(-3.7385044295e-02 -4.7662985477e-02 3.1720272171e-01)	(1.9455510552e-03 1.7936085366e-03 1.2764269482e-03)
2.808            	-3.5330387208e-02 -4.5705839619e-02 3.2064627963e-01	(-3.7273411679e-02 -4.7502972329e-02 3.1937135003e-01)	(1.9430244710e-03 1.7971327095e-03 1.2749295996e-03)
2.809            	-3.4476012428e-02 -4.6783212553e-02 3.2660589420e-01	(-3.6419637629e-02 -4.8583271427e-02 3.2533180852e-01)	(1.9436252006e-03 1.8000588739e-03 1.2740856828e-03)
2.81             	-3.5856704057e-02 -4.5242543687e-02 3.1949683168e-01	(-3.7797090862e-02 -4.7044816792e-02 3.1822486253e-01)	(1.9403868054e-03 1.8022731048e-03 1.2719691525e-03)
2.811            	-3.4675823914e-02 -4.6228801316e-02 3.2749569248e-01	(-3.6616690775e-02 -4.8034261422e-02 3.2622463503e-01)	(1.9408668611e-03 1.8054601062e-03 1.2710574462e-03)
2.812            	-3.4963136073e-02 -4.5898706012e-02 3.2706650051e-01	(-3.6903960144e-02 -4.7707184532e-02 3.2579664885e-01)	(1.9408240713e-03 1.8084785200e-03 1.2698516609e-03)
2.813            	-3.5068312833e-02 -4.5560375912e-02 3.2698138668e-01	(-3.7008933819e-02 -4.7371878314e-02 3.2571284344e-01)	(1.9406209860e-03 1.8115024023e-03 1.2685432473e-03)
2.814            	-3.5237932147e-02 -4.5265374776e-02 3.2710533158e-01	(-3.7178050728e-02 -4.7079871342e-02 3.2583822330e-01)	(1.9401185807e-03 1.8144965658e-03 1.2671082783e-03)
2.815            	-3.5448166110e-02 -4.4999855754e-02 3.2750673599e-01	(-3.7387385637e-02 -4.6817361947e-02 3.2624106402e-01)	(1.9392195269e-03 1.8175061938e-03 1.2656719717e-03)
2.816            	-3.5376249400e-02 -4.4844332991e-02 3.2834248717e-01	(-3.7315025507e-02 -4.6664850795e-02 3.2707826917e-01)	(1.9387761065e-03 1.8205178044e-03 1.2642180054e-03)
2.817            	-3.5638152948e-02 -4.4518076093e-02 3.2829762120e-01	(-3.7575977307e-02 -4.6341508111e-02 3.2703493379e-01)	(1.9378243597e-03 1.8234320178e-03 1.2626874066e-03)
2.818            	-3.5596263454e-02 -4.4361950607e-02 3.2926335505e-01	(-3.7533538196e-02 -4.6188398168e-02 3.2800218326e-01)	(1.9372747417e-03 1.8264475609e-03 1.2611717829e-03)
2.819            	-3.6267909090e-02 -4.3823741446e-02 3.2733871819e-01	(-3.8202924032e-02 -4.5652422994e-02 3.2607951570e-01)	(1.9350149418e-03 1.8286815489e-03 1.2592024914e-03)
2.82             	-3.5618346588e-02 -4.3873943356e-02 3.3049826182e-01	(-3.7553242709e-02 -4.5705979730e-02 3.2924047378e-01)	(1.9348961214e-03 1.8320363747e-03 1.2577880449e-03)
2.821            	-3.5874455157e-02 -4.3615915786e-02 3.3051241692e-01	(-3.7808784942e-02 -4.5450936305e-02 3.2925616430e-01)	(1.9343297859e-03 1.8350205194e-03 1.2562526178e-03)
2.822            	-3.6004741603e-02 -4.3318681120e-02 3.3062621950e-01	(-3.7938405279e-02 -4.5156672978e-02 3.2937159744e-01)	(1.9336636757e-03 1.8379918583e-03 1.2546220622e-03)
2.823            	-3.6746064542e-02 -4.2870857795e-02 3.2985440293e-01	(-3.8677168032e-02 -4.4711580569e-02 3.2860158737e-01)	(1.9311034893e-03 1.8407227739e-03 1.2528155606e-03)
2.824            	-3.6113225212e-02 -4.3225672369e-02 3.3384723729e-01	(-3.8043775572e-02 -4.5069439181e-02 3.3259576338e-01)	(1.9305503602e-03 1.8437668117e-03 1.2514739114e-03)
2.825            	-3.6159089031e-02 -4.2830944843e-02 3.3344231331e-01	(-3.8089266177e-02 -4.4677683981e-02 3.3219230482e-01)	(1.9301771463e-03 1.8467391380e-03 1.2500084914e-03)
2.826            	-3.6725377305e-02 -4.1839750905e-02 3.2964668096e-01	(-3.8653582936e-02 -4.3689399556e-02 3.2839878844e-01)	(1.9282056308e-03 1.8496486507e-03 1.2478925204e-03)
2.827            	-3.6532605417e-02 -4.2279465087e-02 3.3447976696e-01	(-3.8459920313e-02 -4.4132148516e-02 3.3323334708e-01)	(1.9273148957e-03 1.8526834289e-03 1.2464198806e-03)
2.828            	-3.7055187599e-02 -4.1349878117e-02 3.3044423486e-01	(-3.8980210142e-02 -4.3205245181e-02 3.2920000086e-01)	(1.9250225433e-03 1.8553670638e-03 1.2442340000e-03)
2.829            	-3.6446293531e-02 -4.2147362879e-02 3.3748109564e-01	(-3.8371305736e-02 -4.4005733664e-02 3.3623809183e-01)	(1.9250122044e-03 1.8583707853e-03 1.2430038105e-03)
2.83             	-3.6677459180e-02 -4.1637130104e-02 3.3621704620e-01	(-3.8602022730e-02 -4.3498384771e-02 3.3497561323e-01)	(1.9245635507e-03 1.8612546665e-03 1.2414329746e-03)
2.831            	-3.7484285781e-02 -4.0611707366e-02 3.3161767746e-01	(-3.9406156431e-02 -4.2475403761e-02 3.3037852883e-01)	(1.9218706503e-03 1.8636963944e-03 1.2391486331e-03)
2.832            	-3.6754280511e-02 -4.1208330027e-02 3.3708343063e-01	(-3.8675887555e-02 -4.3074740539e-02 3.3584585573e-01)	(1.9216070437e-03 1.8664105117e-03 1.2375748941e-03)
2.833            	-3.6534218260e-02 -4.1007583707e-02 3.3825311151e-01	(-3.8456429387e-02 -4.2876884503e-02 3.3701700904e-01)	(1.9222111276e-03 1.8693007960e-03 1.2361024743e-03)
2.834            	-3.6686663298e-02 -4.0681036180e-02 3.3847304934e-01	(-3.8609242677e-02 -4.2553251967e-02 3.3723858030e-01)	(1.9225793795e-03 1.8722157875e-03 1.2344690336e-03)
2.835            	-3.7452586341e-02 -4.0064875702e-02 3.3606880391e-01	(-3.9373506200e-02 -4.1939276507e-02 3.3483648366e-01)	(1.9209198592e-03 1.8744008050e-03 1.2323202495e-03)
2.836            	-3.6759808705e-02 -4.0154225112e-02 3.3960260287e-01	(-3.8681367906e-02 -4.2031726230e-02 3.3837195179e-01)	(1.9215592007e-03 1.8775011178e-03 1.2306510753e-03)
2.837            	-3.6959931349e-02 -3.9819068655e-02 3.3950115739e-01	(-3.8881761315e-02 -4.1699526086e-02 3.3827230069e-01)	(1.9218299665e-03 1.8804574314e-03 1.2288566963e-03)
2.838            	-3.7010981543e-02 -3.9554177770e-02 3.3990473945e-01	(-3.8933139046e-02 -4.1437540522e-02 3.3867779776e-01)	(1.9221575025e-03 1.8833627525e-03 1.2269416895e-03)
2.839            	-3.7114844717e-02 -3.9255129056e-02 3.4028933778e-01	(-3.9037174361e-02 -4.1141454512e-02 3.3906433496e-01)	(1.9223296446e-03 1.8863254560e-03 1.2250028282e-03)
2.84             	-3.7271848202e-02 -3.9016536656e-02 3.4097583452e-01	(-3.9194038852e-02 -4.0905761539e-02 3.3975285527e-01)	(1.9221906491e-03 1.8892248826e-03 1.2229792516e-03)
2.841            	-3.7245569789e-02 -3.8710316196e-02 3.4113040537e-01	(-3.9167898721e-02 -4.0602415167e-02 3.3990948309e-01)	(1.9223289320e-03 1.8920989710e-03 1.2209222819e-03)
2.842            	-3.7367368018e-02 -3.8418445979e-02 3.4135815469e-01	(-3.9289730235e-02 -4.0313346707e-02 3.4013941931e-01)	(1.9223622169e-03 1.8949007276e-03 1.2187353820e-03)
2.843            	-3.7636745588e-02 -3.8032686785e-02 3.4095982543e-01	(-3.9558544547e-02 -3.9930222883e-02 3.3974338248e-01)	(1.9217989584e-03 1.8975360987e-03 1.2164429436e-03)
2.844            	-3.7462266322e-02 -3.7866539555e-02 3.4223752972e-01	(-3.9384253128e-02 -3.9766871658e-02 3.4102332718e-01)	(1.9219868059e-03 1.9003321032e-03 1.2142025337e-03)
2.845            	-3.7581177537e-02 -3.7667794552e-02 3.4310269150e-01	(-3.9503228966e-02 -3.9570879732e-02 3.4189067477e-01)	(1.9220514288e-03 1.9030851801e-03 1.2120167334e-03)
2.846            	-3.7669637624e-02 -3.7340431183e-02 3.4326118867e-01	(-3.9591643433e-02 -3.9246249006e-02 3.4205150150e-01)	(1.9220058094e-03 1.9058178237e-03 1.2096871729e-03)
2.847            	-3.8495627046e-02 -3.6849821118e-02 3.4137790639e-01	(-4.0415426332e-02 -3.8757544900e-02 3.4017097276e-01)	(1.9197992858e-03 1.9077237826e-03 1.2069336232e-03)
2.848            	-3.7596151183e-02 -3.6911602007e-02 3.4545497988e-01	(-3.9516591574e-02 -3.8822457281e-02 3.4425014655e-01)	(1.9204403908e-03 1.9108552741e-03 1.2048333322e-03)
2.849            	-3.8275359350e-02 -3.5532072464e-02 3.3779918652e-01	(-4.0194258661e-02 -3.7445489841e-02 3.3659757071e-01)	(1.9188993109e-03 1.9134173778e-03 1.2016158101e-03)
2.85             	-3.7913100435e-02 -3.6840363811e-02 3.4935972825e-01	(-3.9832347757e-02 -3.8756493161e-02 3.4815990109e-01)	(1.9192473227e-03 1.9161293498e-03 1.1998271664e-03)
2.851            	-3.8695457942e-02 -3.5398282478e-02 3.4132291565e-01	(-4.0612609842e-02 -3.7316672032e-02 3.4012606695e-01)	(1.9171519001e-03 1.9183895541e-03 1.1968486923e-03)
2.852            	-3.8760567749e-02 -3.5414562767e-02 3.4372371107e-01	(-4.0675751972e-02 -3.7335075333e-02 3.4252962479e-01)	(1.9151842235e-03 1.9205125660e-03 1.1940862796e-03)
2.853            	-3.7871458805e-02 -3.5818086980e-02 3.4952189850e-01	(-3.9787483535e-02 -3.7741381511e-02 3.4832978298e-01)	(1.9160247303e-03 1.9232945305e-03 1.1921155255e-03)
2.854            	-3.7994177176e-02 -3.5349491246e-02 3.4836992515e-01	(-3.9910839361e-02 -3.7275322360e-02 3.4718015065e-01)	(1.9166621847e-03 1.9258311131e-03 1.1897744997e-03)
2.855            	-3.7997323049e-02 -3.5062283636e-02 3.4905779621e-01	(-3.9914718206e-02 -3.6990806894e-02 3.4787034954e-01)	(1.9173951566e-03 1.9285232578e-03 1.1874466693e-03)
2.856            	-3.8073296751e-02 -3.4774678944e-02 3.4977289816e-01	(-3.9991304767e-02 -3.6706001325e-02 3.4858785552e-01)	(1.9180080159e-03 1.9313223811e-03 1.1850426359e-03)
2.857            	-3.8189329736e-02 -3.4397552491e-02 3.4952439762e-01	(-4.0107696126e-02 -3.6331602687e-02 3.4834187209e-01)	(1.9183663909e-03 1.9340501963e-03 1.1825255301e-03)
2.858            	-3.8270592548e-02 -3.4105463392e-02 3.4963428169e-01	(-4.0189252791e-02 -3.6042028872e-02 3.4845440302e-01)	(1.9186602427e-03 1.9365654795e-03 1.1798786770e-03)
2.859            	-3.8511287122e-02 -3.3664929497e-02 3.4904722339e-01	(-4.0429626862e-02 -3.5603941890e-02 3.4787013562e-01)	(1.9183397397e-03 1.9390123922e-03 1.1770877695e-03)
2.86             	-3.8488200559e-02 -3.3678910921e-02 3.5074244985e-01	(-4.0406494268e-02 -3.5620013835e-02 3.4956809339e-01)	(1.9182937089e-03 1.9411029141e-03 1.1743564573e-03)
2.861            	-3.8491640991e-02 -3.3192703548e-02 3.5065249576e-01	(-4.0409943760e-02 -3.5136230565e-02 3.4948088300e-01)	(1.9183027696e-03 1.9435270179e-03 1.1716127606e-03)
2.862            	-3.8457448580e-02 -3.2916629743e-02 3.5131063513e-01	(-4.0376048139e-02 -3.4862647613e-02 3.5014177303e-01)	(1.9185995583e-03 1.9460178701e-03 1.1688621046e-03)
2.863            	-3.9306087575e-02 -3.2298559335e-02 3.4808243465e-01	(-4.1222626160e-02 -3.4246057703e-02 3.4691690803e-01)	(1.9165385848e-03 1.9474983684e-03 1.1655266235e-03)
2.864            	-3.8375404351e-02 -3.2368098261e-02 3.5275716404e-01	(-4.0292811894e-02 -3.4318310798e-02 3.5159423798e-01)	(1.9174075432e-03 1.9502125368e-03 1.1629260640e-03)
2.865            	-3.8595652660e-02 -3.1995456676e-02 3.5240373733e-01	(-4.0513327977e-02 -3.3948131803e-02 3.5124356698e-01)	(1.9176753171e-03 1.9526751268e-03 1.1601703422e-03)
2.866            	-3.8778995025e-02 -3.1703209498e-02 3.5300211162e-01	(-4.0696551749e-02 -3.3658315090e-02 3.5184474741e-01)	(1.9175567238e-03 1.9551055923e-03 1.1573642155e-03)