# Force          
# CofR           : (0.0000000000e+00 0.0000000000e+00 0.0000000000e+00)
#                
# Time           	(total_x total_y total_z)	(pressure_x pressure_y pressure_z)	(viscous_x viscous_y viscous_z)
2.701            	(-1.9941982994e-02 -6.0004048057e-02 2.5854839672e-01)	(-2.2275794021e-02 -6.1473876051e-02 2.5717576188e-01)	(2.3338110277e-03 1.4698279942e-03 1.3726348407e-03)
2.702            	(-2.0879231419e-02 -5.9170379486e-02 2.5575797967e-01)	(-2.3208505054e-02 -6.0643097765e-02 2.5438564936e-01)	(2.3292736352e-03 1.4727182789e-03 1.3723303085e-03)
2.703            	(-2.1160897712e-02 -5.8919377572e-02 2.5572949151e-01)	(-2.3485158237e-02 -6.0395014199e-02 2.5435760966e-01)	(2.3242605250e-03 1.4756366265e-03 1.3718818488e-03)
2.704            	(-2.1380522659e-02 -5.8865602972e-02 2.5627240384e-01)	(-2.3699636778e-02 -6.0344078173e-02 2.5490106083e-01)	(2.3191141195e-03 1.4784752013e-03 1.3713430134e-03)
2.705            	(-2.2339465492e-02 -5.8280452619e-02 2.5472591353e-01)	(-2.4651156514e-02 -5.9761347053e-02 2.5335558248e-01)	(2.3116910219e-03 1.4808944334e-03 1.3703310538e-03)
