# Force          
# CofR           : (0.0000000000e+00 0.0000000000e+00 0.0000000000e+00)
#                
# Time           	(total_x total_y total_z)	(pressure_x pressure_y pressure_z)	(viscous_x viscous_y viscous_z)
0.428            	(1.3444320825e-02 -1.2208093262e-02 3.6804258844e-02)	(1.0559946152e-02 -1.3311645057e-02 3.6064147519e-02)	(2.8843746721e-03 1.1035517950e-03 7.4011132498e-04)
0.429            	(1.3444090769e-02 -1.2517376112e-02 3.7646250288e-02)	(1.0555951535e-02 -1.3617076039e-02 3.6903519265e-02)	(2.8881392339e-03 1.0996999265e-03 7.4273102256e-04)
0.43             	(1.3399231676e-02 -1.2822263706e-02 3.8532256784e-02)	(1.0507342312e-02 -1.3918165558e-02 3.7786906298e-02)	(2.8918893638e-03 1.0959018521e-03 7.4535048594e-04)
0.431            	(1.3463346838e-02 -1.2988243648e-02 3.9034199873e-02)	(1.0567449305e-02 -1.4080449166e-02 3.8286244237e-02)	(2.8958975327e-03 1.0922055176e-03 7.4795563535e-04)
0.432            	(1.3300594682e-02 -1.3181842471e-02 3.9569821443e-02)	(1.0401103000e-02 -1.4270330645e-02 3.8819327835e-02)	(2.8994916821e-03 1.0884881739e-03 7.5049360847e-04)
0.433            	(1.3469959928e-02 -1.3564648234e-02 4.0772389931e-02)	(1.0566275709e-02 -1.4649652382e-02 4.0019220120e-02)	(2.9036842189e-03 1.0850041476e-03 7.5316981063e-04)
0.434            	(1.2990839908e-02 -1.3750193692e-02 4.0964148382e-02)	(1.0084242630e-02 -1.4831139860e-02 4.0208612829e-02)	(2.9065972779e-03 1.0809461675e-03 7.5553555354e-04)
0.435            	(1.3107784698e-02 -1.4060585657e-02 4.2000989411e-02)	(1.0197765767e-02 -1.5137764134e-02 4.1242962960e-02)	(2.9100189313e-03 1.0771784761e-03 7.5802645074e-04)
0.436            	(1.3059536573e-02 -1.4339178823e-02 4.2764065624e-02)	(1.0146112041e-02 -1.5412605810e-02 4.2003565789e-02)	(2.9134245328e-03 1.0734269868e-03 7.6049983487e-04)
0.437            	(1.2729222520e-02 -1.4236574560e-02 4.2466920056e-02)	(9.8132395988e-03 -1.5306233966e-02 4.1704135120e-02)	(2.9159829216e-03 1.0696594055e-03 7.6278493603e-04)
0.438            	(1.2736065296e-02 -1.4515598540e-02 4.3325113531e-02)	(9.8173453659e-03 -1.5581613885e-02 4.2559997929e-02)	(2.9187199302e-03 1.0660153450e-03 7.6511560190e-04)
0.439            	(1.2766011692e-02 -1.5042694141e-02 4.4709841512e-02)	(9.8442829505e-03 -1.6104960405e-02 4.3942349847e-02)	(2.9217287414e-03 1.0622662648e-03 7.6749166471e-04)
0.44             	(1.2710570814e-02 -1.5387711226e-02 4.5732105713e-02)	(9.7858283234e-03 -1.6446308394e-02 4.4962203750e-02)	(2.9247424906e-03 1.0585971675e-03 7.6990196241e-04)
0.441            	(1.2750561378e-02 -1.5656708105e-02 4.6515347336e-02)	(9.8225758436e-03 -1.6711719851e-02 4.5743026594e-02)	(2.9279855342e-03 1.0550117465e-03 7.7232074172e-04)
0.442            	(1.3093304036e-02 -1.5454415810e-02 4.6271494893e-02)	(1.0161155306e-02 -1.6506427019e-02 4.5496645325e-02)	(2.9321487299e-03 1.0520112093e-03 7.7484956787e-04)
0.443            	(1.2516986835e-02 -1.6188456441e-02 4.8031971585e-02)	(9.5821084024e-03 -1.7236903874e-02 4.7254776771e-02)	(2.9348784324e-03 1.0484474323e-03 7.7719481418e-04)
0.444            	(1.2660405863e-02 -1.6707910593e-02 4.9430443591e-02)	(9.7221779677e-03 -1.7752748020e-02 4.8650845152e-02)	(2.9382278953e-03 1.0448374267e-03 7.7959843932e-04)
0.445            	(1.2570433103e-02 -1.6944264655e-02 5.0053150666e-02)	(9.6290108470e-03 -1.7985448797e-02 4.9271229516e-02)	(2.9414222562e-03 1.0411841416e-03 7.8192115041e-04)
0.446            	(1.2593967087e-02 -1.7162047888e-02 5.0758292211e-02)	(9.6491968769e-03 -1.8199757583e-02 4.9974042426e-02)	(2.9447702106e-03 1.0377096949e-03 7.8424978512e-04)
0.447            	(1.2561727093e-02 -1.7451584867e-02 5.1587344749e-02)	(9.6136029633e-03 -1.8485862837e-02 5.0800782048e-02)	(2.9481241297e-03 1.0342779700e-03 7.8656270098e-04)
0.448            	(1.3079758476e-02 -1.6425652144e-02 4.9018862281e-02)	(1.0127168251e-02 -1.7456923505e-02 4.8230128181e-02)	(2.9525902247e-03 1.0312713618e-03 7.8873409972e-04)
0.449            	(1.2273948760e-02 -1.8062342108e-02 5.3317027388e-02)	(9.3186880139e-03 -1.9090188754e-02 5.2526056312e-02)	(2.9552607458e-03 1.0278466463e-03 7.9097107608e-04)
0.45             	(1.2323978026e-02 -1.8347290948e-02 5.4104035846e-02)	(9.3657523840e-03 -1.9371717010e-02 5.3310820749e-02)	(2.9582256424e-03 1.0244260620e-03 7.9321509631e-04)
0.451            	(1.2351574538e-02 -1.8617270088e-02 5.4896512262e-02)	(9.3901856777e-03 -1.9638340742e-02 5.4101051178e-02)	(2.9613888605e-03 1.0210706538e-03 7.9546108348e-04)
0.452            	(1.2276807968e-02 -1.8893877584e-02 5.5669928291e-02)	(9.3123609584e-03 -1.9911583933e-02 5.4872268522e-02)	(2.9644470095e-03 1.0177063489e-03 7.9765976899e-04)
0.453            	(1.2265209174e-02 -1.9188396501e-02 5.6516299280e-02)	(9.2976318381e-03 -2.0202786121e-02 5.5716454781e-02)	(2.9675773355e-03 1.0143896200e-03 7.9984449955e-04)
0.454            	(1.2248653412e-02 -1.9463493444e-02 5.7322423461e-02)	(9.2778843120e-03 -2.0474634133e-02 5.6520406646e-02)	(2.9707691003e-03 1.0111406883e-03 8.0201681476e-04)
0.455            	(1.2190207096e-02 -1.9802367721e-02 5.8263094757e-02)	(9.2162955754e-03 -2.0810249771e-02 5.7458924816e-02)	(2.9739115203e-03 1.0078820493e-03 8.0416994086e-04)
0.456            	(1.2125911706e-02 -2.0046098378e-02 5.8950747942e-02)	(9.1489254911e-03 -2.1050728612e-02 5.8144459439e-02)	(2.9769862147e-03 1.0046302341e-03 8.0628850375e-04)
0.457            	(1.2066432535e-02 -2.0344795084e-02 5.9811911072e-02)	(9.0864047845e-03 -2.1346213887e-02 5.9003519940e-02)	(2.9800277509e-03 1.0014188037e-03 8.0839113214e-04)
0.458            	(1.2012832757e-02 -2.0581498938e-02 6.0492110283e-02)	(9.0297936627e-03 -2.1579733492e-02 5.9681647153e-02)	(2.9830390942e-03 9.9823455396e-04 8.1046312999e-04)
0.459            	(1.2006428736e-02 -2.0941740835e-02 6.1509463450e-02)	(9.0202871960e-03 -2.1936801189e-02 6.0696915989e-02)	(2.9861415402e-03 9.9506035488e-04 8.1254746079e-04)
0.46             	(1.1948847106e-02 -2.1160556497e-02 6.2151843117e-02)	(8.9596634285e-03 -2.2152488366e-02 6.1337250259e-02)	(2.9891836773e-03 9.9193186890e-04 8.1459285798e-04)
0.461            	(1.2161419076e-02 -2.1206159560e-02 6.2487499818e-02)	(9.1685476219e-03 -2.2195319888e-02 6.1670776944e-02)	(2.9928714539e-03 9.8916032799e-04 8.1672287436e-04)
0.462            	(1.1763027236e-02 -2.1706991816e-02 6.3666384006e-02)	(8.7674447421e-03 -2.2692967740e-02 6.2847699736e-02)	(2.9955824942e-03 9.8597592403e-04 8.1868426985e-04)
0.463            	(1.1727941999e-02 -2.1980174101e-02 6.4466123628e-02)	(8.7296184147e-03 -2.2963018410e-02 6.3645485782e-02)	(2.9983235845e-03 9.8284430869e-04 8.2063784614e-04)
0.464            	(1.1689955728e-02 -2.2227568109e-02 6.5184115763e-02)	(8.6888683431e-03 -2.3207324254e-02 6.4361566483e-02)	(3.0010873852e-03 9.7975614472e-04 8.2254928025e-04)
0.465            	(1.1688034775e-02 -2.2469020360e-02 6.5903323514e-02)	(8.6840519970e-03 -2.3445760521e-02 6.5078879706e-02)	(3.0039827782e-03 9.7674016145e-04 8.2444380815e-04)
0.466            	(1.1585443263e-02 -2.2785741287e-02 6.6804507031e-02)	(8.5786955451e-03 -2.3759477608e-02 6.5978204025e-02)	(3.0067477176e-03 9.7373632108e-04 8.2630300610e-04)
0.467            	(1.1559953611e-02 -2.3019125228e-02 6.7472035990e-02)	(8.5503908833e-03 -2.3989900148e-02 6.6643920770e-02)	(3.0095627275e-03 9.7077492014e-04 8.2811521984e-04)
0.468            	(1.1518438787e-02 -2.3316236908e-02 6.8322273065e-02)	(8.5060481517e-03 -2.4284086905e-02 6.7492372497e-02)	(3.0123906356e-03 9.6784999701e-04 8.2990056855e-04)
0.469            	(1.1467348358e-02 -2.3569375631e-02 6.9067450331e-02)	(8.4521466783e-03 -2.4534355965e-02 6.8235795084e-02)	(3.0152016800e-03 9.6498033434e-04 8.3165524747e-04)
0.47             	(1.1396187165e-02 -2.3836379430e-02 6.9830448262e-02)	(8.3782379874e-03 -2.4798513898e-02 6.8997086092e-02)	(3.0179491775e-03 9.6213446774e-04 8.3336216943e-04)
0.471            	(1.1335672942e-02 -2.4145848062e-02 7.0718213462e-02)	(8.3149804516e-03 -2.5105168535e-02 6.9883174712e-02)	(3.0206924909e-03 9.5932047289e-04 8.3503874986e-04)
0.472            	(1.1363057705e-02 -2.4339912458e-02 7.1273729081e-02)	(8.3393396821e-03 -2.5296447998e-02 7.0437063758e-02)	(3.0237180225e-03 9.5653553938e-04 8.3666532260e-04)
0.473            	(1.1133739136e-02 -2.4739682214e-02 7.2426701556e-02)	(8.1075265573e-03 -2.5693473373e-02 7.1588453608e-02)	(3.0262125788e-03 9.5379115836e-04 8.3824794888e-04)
0.474            	(1.1010864419e-02 -2.5052931040e-02 7.3431050532e-02)	(7.9823263204e-03 -2.6004104795e-02 7.2591212460e-02)	(3.0285380983e-03 9.5117375472e-04 8.3983807254e-04)
0.475            	(1.1169721443e-02 -2.5183506081e-02 7.3682127879e-02)	(8.1382931684e-03 -2.6131994410e-02 7.2840822985e-02)	(3.0314282743e-03 9.4848832908e-04 8.4130489368e-04)
0.476            	(1.1066461915e-02 -2.5451858577e-02 7.4506857399e-02)	(8.0322845075e-03 -2.6397748583e-02 7.3664133275e-02)	(3.0341774075e-03 9.4589000599e-04 8.4272412370e-04)
0.477            	(1.1214794747e-02 -2.5405005292e-02 7.4437221257e-02)	(8.1773474256e-03 -2.6348372461e-02 7.3593144712e-02)	(3.0374473213e-03 9.4336716949e-04 8.4407654543e-04)
0.478            	(1.0906527294e-02 -2.5936471323e-02 7.5927198772e-02)	(7.8665445320e-03 -2.6877321320e-02 7.5081814983e-02)	(3.0399827618e-03 9.4084999669e-04 8.4538378880e-04)
0.479            	(1.0849121329e-02 -2.6216266660e-02 7.6740231510e-02)	(7.8066053211e-03 -2.7154642973e-02 7.5893587626e-02)	(3.0425160083e-03 9.3837631297e-04 8.4664388359e-04)
0.48             	(1.0791648097e-02 -2.6491415745e-02 7.7540305567e-02)	(7.7466014666e-03 -2.7427364082e-02 7.6692463044e-02)	(3.0450466303e-03 9.3594833725e-04 8.4784252359e-04)
0.481            	(1.0733458163e-02 -2.6747505668e-02 7.8293136065e-02)	(7.6858897183e-03 -2.7681077344e-02 7.7444150924e-02)	(3.0475684450e-03 9.3357167608e-04 8.4898514108e-04)
0.482            	(1.0699670414e-02 -2.6948877565e-02 7.8908802591e-02)	(7.6495208349e-03 -2.7880157409e-02 7.8058737011e-02)	(3.0501495790e-03 9.3127984377e-04 8.5006558007e-04)
0.483            	(1.0615879846e-02 -2.7257203446e-02 7.9785755554e-02)	(7.5632295342e-03 -2.8186197120e-02 7.8934681884e-02)	(3.0526503118e-03 9.2899367363e-04 8.5107366955e-04)
0.484            	(1.0522941858e-02 -2.7591078042e-02 8.0730823179e-02)	(7.4678810392e-03 -2.8517798486e-02 7.9878821223e-02)	(3.0550608192e-03 9.2672044350e-04 8.5200195587e-04)
0.485            	(1.0479913971e-02 -2.7851534816e-02 8.1520647090e-02)	(7.4223840551e-03 -2.8776093115e-02 8.0667788533e-02)	(3.0575299155e-03 9.2455829834e-04 8.5285855699e-04)
0.486            	(1.0402439767e-02 -2.8097688817e-02 8.2243417645e-02)	(7.3424901662e-03 -2.9020149054e-02 8.1389814173e-02)	(3.0599496008e-03 9.2246023748e-04 8.5360347225e-04)
0.487            	(1.0457309150e-02 -2.8378402296e-02 8.3146341586e-02)	(7.3946091348e-03 -2.9298981096e-02 8.2292026522e-02)	(3.0627000155e-03 9.2057880042e-04 8.5431506438e-04)
0.488            	(1.0210423569e-02 -2.8630010096e-02 8.3779812029e-02)	(7.1455246194e-03 -2.9548562297e-02 8.2925003018e-02)	(3.0648989496e-03 9.1855220097e-04 8.5480901144e-04)
0.489            	(1.0213322867e-02 -2.8860408159e-02 8.4530298835e-02)	(7.1460449902e-03 -2.9777126961e-02 8.3675088225e-02)	(3.0672778773e-03 9.1671880168e-04 8.5521060988e-04)
0.49             	(1.0152668274e-02 -2.9123828058e-02 8.5312462755e-02)	(7.0830093517e-03 -3.0038807500e-02 8.4457000377e-02)	(3.0696589228e-03 9.1497944150e-04 8.5546237753e-04)
0.491            	(1.0075542515e-02 -2.9421273255e-02 8.6196517016e-02)	(7.0035337675e-03 -3.0334627748e-02 8.5340966459e-02)	(3.0720087475e-03 9.1335449346e-04 8.5555055798e-04)
0.492            	(1.0010781013e-02 -2.9667651648e-02 8.6941987538e-02)	(6.9364280085e-03 -3.0579502337e-02 8.6086552405e-02)	(3.0743530041e-03 9.1185068906e-04 8.5543513216e-04)
0.493            	(9.9419666042e-03 -2.9936007409e-02 8.7749493644e-02)	(6.8652911671e-03 -3.0846498078e-02 8.6894415151e-02)	(3.0766754371e-03 9.1049066935e-04 8.5507849306e-04)
0.494            	(9.8733291697e-03 -3.0197084051e-02 8.8536679562e-02)	(6.7943608518e-03 -3.1106367108e-02 8.7682241914e-02)	(3.0789683179e-03 9.0928305734e-04 8.5443764797e-04)
0.495            	(9.8049078528e-03 -3.0451162216e-02 8.9306775826e-02)	(6.7236794774e-03 -3.1359402646e-02 8.8453300597e-02)	(3.0812283755e-03 9.0824043047e-04 8.5347522900e-04)
0.496            	(9.6799832894e-03 -3.0808620831e-02 9.0430311194e-02)	(6.5966735904e-03 -3.1716020949e-02 8.9578119210e-02)	(3.0833096990e-03 9.0740011853e-04 8.5219198408e-04)
0.497            	(9.6603489076e-03 -3.0950283855e-02 9.0828166123e-02)	(6.5748623749e-03 -3.1857047675e-02 8.9977778651e-02)	(3.0854865326e-03 9.0676381965e-04 8.5038747151e-04)
0.498            	(9.5936403647e-03 -3.1216266073e-02 9.1641698421e-02)	(6.5060163848e-03 -3.2122651494e-02 9.0793658173e-02)	(3.0876239799e-03 9.0638542079e-04 8.4804024866e-04)
0.499            	(9.5244568869e-03 -3.1474281684e-02 9.2421811672e-02)	(6.4347697211e-03 -3.2380547944e-02 9.1576747439e-02)	(3.0896871659e-03 9.0626626010e-04 8.4506423237e-04)
0.5              	(9.4558427271e-03 -3.1717372221e-02 9.3168493125e-02)	(6.3641843279e-03 -3.2623783257e-02 9.2327015256e-02)	(3.0916583992e-03 9.0641103592e-04 8.4147786957e-04)
0.501            	(9.3838556284e-03 -3.1956896740e-02 9.3909960475e-02)	(6.2902752250e-03 -3.2863436025e-02 9.3071837912e-02)	(3.0935804034e-03 9.0653928443e-04 8.3812256245e-04)
0.502            	(9.3048703743e-03 -3.2189763540e-02 9.4630489874e-02)	(6.2093200440e-03 -3.3096024911e-02 9.3794432750e-02)	(3.0955503303e-03 9.0626137043e-04 8.3605712411e-04)
0.503            	(9.2235745340e-03 -3.2418978065e-02 9.5342736904e-02)	(6.1259706854e-03 -3.3324281938e-02 9.4506668611e-02)	(3.0976038486e-03 9.0530387280e-04 8.3606829271e-04)
0.504            	(9.1419978203e-03 -3.2678966638e-02 9.6136606636e-02)	(6.0422530001e-03 -3.3582617585e-02 9.5298414565e-02)	(3.0997448202e-03 9.0365094703e-04 8.3819207181e-04)
0.505            	(9.0646420028e-03 -3.2934988568e-02 9.6918191122e-02)	(5.9627276315e-03 -3.3836477252e-02 9.6076310359e-02)	(3.1019143713e-03 9.0148868363e-04 8.4188076330e-04)
0.506            	(8.9887095526e-03 -3.3195702517e-02 9.7720722439e-02)	(5.8846320532e-03 -3.4094722664e-02 9.6874107208e-02)	(3.1040774994e-03 8.9902014705e-04 8.4661523094e-04)
0.507            	(8.9155269765e-03 -3.3420959059e-02 9.8432049094e-02)	(5.8093380932e-03 -3.4317366871e-02 9.7580113221e-02)	(3.1061888833e-03 8.9640781162e-04 8.5193587255e-04)
0.508            	(8.8190245375e-03 -3.3630070583e-02 9.9106255629e-02)	(5.7108275236e-03 -3.4523810576e-02 9.8248658053e-02)	(3.1081970138e-03 8.9373999334e-04 8.5759757681e-04)
0.509            	(8.7671971470e-03 -3.3903283722e-02 9.9948166110e-02)	(5.6569460617e-03 -3.4794335839e-02 9.9084684510e-02)	(3.1102510853e-03 8.9105211726e-04 8.6348160000e-04)
0.51             	(8.6900449548e-03 -3.4150677645e-02 1.0072823738e-01)	(5.5777683651e-03 -3.5039059377e-02 9.9858756211e-02)	(3.1122765897e-03 8.8838173219e-04 8.6948117010e-04)
0.511            	(8.6160151173e-03 -3.4408920554e-02 1.0153703401e-01)	(5.5017366856e-03 -3.5294665364e-02 1.0066149888e-01)	(3.1142784317e-03 8.8574480979e-04 8.7553513169e-04)
0.512            	(8.5258507533e-03 -3.4649780852e-02 1.0229546083e-01)	(5.4096343320e-03 -3.5532925176e-02 1.0141386475e-01)	(3.1162164213e-03 8.8314432400e-04 8.8159607435e-04)
0.513            	(8.4564973843e-03 -3.4859127872e-02 1.0298771585e-01)	(5.3383644172e-03 -3.5739756314e-02 1.0210007389e-01)	(3.1181329671e-03 8.8062844173e-04 8.8764195888e-04)
0.514            	(8.3570494919e-03 -3.5106673545e-02 1.0375907400e-01)	(5.2370795677e-03 -3.5984822317e-02 1.0286543391e-01)	(3.1199699241e-03 8.7814877214e-04 8.9364009804e-04)
0.515            	(8.2629171543e-03 -3.5357148619e-02 1.0455300807e-01)	(5.1411778867e-03 -3.6232876311e-02 1.0365341077e-01)	(3.1217392676e-03 8.7572769203e-04 8.9959729607e-04)
0.516            	(8.2052703150e-03 -3.5575692484e-02 1.0527833698e-01)	(5.0817386480e-03 -3.6449110106e-02 1.0437283801e-01)	(3.1235316671e-03 8.7341762180e-04 9.0549896560e-04)
0.517            	(8.1358115238e-03 -3.5789920928e-02 1.0599085249e-01)	(5.0105045176e-03 -3.6661134154e-02 1.0507951406e-01)	(3.1253070062e-03 8.7121322579e-04 9.1133842153e-04)
0.518            	(8.0297929586e-03 -3.6023314325e-02 1.0672156116e-01)	(4.9028237019e-03 -3.6892358282e-02 1.0580445407e-01)	(3.1269692567e-03 8.6904395704e-04 9.1710708428e-04)
0.519            	(7.9620904477e-03 -3.6203699415e-02 1.0735069038e-01)	(4.8334650619e-03 -3.7070687468e-02 1.0642786477e-01)	(3.1286253858e-03 8.6698805342e-04 9.2282561478e-04)
0.52             	(7.8664035379e-03 -3.6480281169e-02 1.0821415852e-01)	(4.7362017103e-03 -3.7345260865e-02 1.0728566561e-01)	(3.1302018276e-03 8.6497969616e-04 9.2849291305e-04)
0.521            	(7.7601497695e-03 -3.6771448232e-02 1.0912108688e-01)	(4.6284879037e-03 -3.7634475406e-02 1.0818697791e-01)	(3.1316618659e-03 8.6302717391e-04 9.3410896114e-04)
0.522            	(7.6756150333e-03 -3.6987542613e-02 1.0984016812e-01)	(4.5425083458e-03 -3.7848736618e-02 1.0890049920e-01)	(3.1331066874e-03 8.6119400552e-04 9.3966891369e-04)
0.523            	(7.5897943472e-03 -3.7238856940e-02 1.1065636041e-01)	(4.4552780417e-03 -3.8098299343e-02 1.0971118190e-01)	(3.1345163055e-03 8.5944240295e-04 9.4517851357e-04)
0.524            	(7.4216908527e-03 -3.7369392352e-02 1.1113224903e-01)	(4.2860319578e-03 -3.8227143120e-02 1.1018166195e-01)	(3.1356588950e-03 8.5775076787e-04 9.5058707720e-04)
0.525            	(7.4381731195e-03 -3.7774687150e-02 1.1238644394e-01)	(4.3011012747e-03 -3.8630834204e-02 1.1143042339e-01)	(3.1370718448e-03 8.5614705343e-04 9.5602054961e-04)
0.526            	(7.3926501164e-03 -3.7979570843e-02 1.1314862641e-01)	(4.2540841061e-03 -3.8834302490e-02 1.1218717987e-01)	(3.1385660103e-03 8.5473164683e-04 9.6144654787e-04)
0.527            	(7.2929317982e-03 -3.8191420611e-02 1.1383752118e-01)	(4.1529473988e-03 -3.9044769303e-02 1.1287072444e-01)	(3.1399843994e-03 8.5334869212e-04 9.6679673388e-04)
0.528            	(7.2011984532e-03 -3.8417192533e-02 1.1459451786e-01)	(4.0598369594e-03 -3.9269238483e-02 1.1362241702e-01)	(3.1413614938e-03 8.5204595020e-04 9.7210084021e-04)
0.529            	(6.6078437586e-03 -3.8248147227e-02 1.1430832752e-01)	(3.4665296214e-03 -3.9098963754e-02 1.1333115469e-01)	(3.1413141373e-03 8.5081652685e-04 9.7717282856e-04)
0.53             	(7.1345122376e-03 -3.9082531575e-02 1.1670316783e-01)	(3.9914900642e-03 -3.9932200484e-02 1.1572067537e-01)	(3.1430221733e-03 8.4966890893e-04 9.8249246060e-04)
0.531            	(6.9629961125e-03 -3.9193014056e-02 1.1716118969e-01)	(3.8185505580e-03 -4.0041622395e-02 1.1617346541e-01)	(3.1444455545e-03 8.4860833832e-04 9.8772427625e-04)
0.532            	(6.8465697657e-03 -3.9379992642e-02 1.1781747617e-01)	(3.7008317445e-03 -4.0227609857e-02 1.1682457268e-01)	(3.1457380213e-03 8.4761721465e-04 9.9290348248e-04)
0.533            	(6.7799480379e-03 -3.9571810233e-02 1.1850483373e-01)	(3.6328895767e-03 -4.0418526637e-02 1.1750677212e-01)	(3.1470584612e-03 8.4671640407e-04 9.9806161089e-04)
0.534            	(6.6572188873e-03 -3.9779619524e-02 1.1922509243e-01)	(3.5089712668e-03 -4.0625500944e-02 1.1822191451e-01)	(3.1482476205e-03 8.4588142056e-04 1.0031779154e-03)
0.535            	(6.5487973745e-03 -4.0024137534e-02 1.2004989855e-01)	(3.3994385042e-03 -4.0869250026e-02 1.1904162925e-01)	(3.1493588704e-03 8.4511249197e-04 1.0082692977e-03)
0.536            	(6.3408714308e-03 -4.0149465465e-02 1.2054974141e-01)	(3.1907681981e-03 -4.0993865419e-02 1.1953645458e-01)	(3.1501032327e-03 8.4439995315e-04 1.0132868248e-03)
0.537            	(6.3936628569e-03 -4.0553451229e-02 1.2184915144e-01)	(3.2424259646e-03 -4.1397248977e-02 1.2083076768e-01)	(3.1512368922e-03 8.4379774803e-04 1.0183837662e-03)
0.538            	(6.2904844230e-03 -4.0624961840e-02 1.2222795085e-01)	(3.1382027189e-03 -4.1468265673e-02 1.2120452384e-01)	(3.1522817041e-03 8.4330383302e-04 1.0234270111e-03)
0.539            	(6.0419175594e-03 -4.0860653787e-02 1.2297819405e-01)	(2.8890542674e-03 -4.1703406895e-02 1.2194979890e-01)	(3.1528632920e-03 8.4275310706e-04 1.0283951564e-03)
0.54             	(6.0805257623e-03 -4.0938902088e-02 1.2342243154e-01)	(2.9267792931e-03 -4.1781280127e-02 1.2238905916e-01)	(3.1537464691e-03 8.4237803912e-04 1.0333723888e-03)
0.541            	(5.9233161075e-03 -4.1360165327e-02 1.2472809524e-01)	(2.7688625365e-03 -4.2202167444e-02 1.2368973346e-01)	(3.1544535710e-03 8.4200211719e-04 1.0383617765e-03)
0.542            	(5.8185047109e-03 -4.1527189485e-02 1.2537762535e-01)	(2.6634160006e-03 -4.2368895228e-02 1.2433429983e-01)	(3.1550887104e-03 8.4170574310e-04 1.0433255210e-03)
0.543            	(5.7055607151e-03 -4.1732910584e-02 1.2612519423e-01)	(2.5499167489e-03 -4.2574380648e-02 1.2507692283e-01)	(3.1556439662e-03 8.4147006434e-04 1.0482713964e-03)
0.544            	(5.6084921453e-03 -4.1952898933e-02 1.2692977563e-01)	(2.4523164930e-03 -4.2794229150e-02 1.2587657128e-01)	(3.1561756523e-03 8.4133021680e-04 1.0532043498e-03)
0.545            	(5.4902705572e-03 -4.2160161883e-02 1.2768063181e-01)	(2.3336617832e-03 -4.3001402684e-02 1.2662252887e-01)	(3.1566087740e-03 8.4124080044e-04 1.0581029343e-03)
0.546            	(5.3539201441e-03 -4.2325106443e-02 1.2831944548e-01)	(2.1970126479e-03 -4.3166310283e-02 1.2725648532e-01)	(3.1569074962e-03 8.4120384040e-04 1.0629601661e-03)
0.547            	(5.3202827080e-03 -4.2603500704e-02 1.2930692131e-01)	(2.1629088735e-03 -4.3444774018e-02 1.2823906188e-01)	(3.1573738346e-03 8.4127331331e-04 1.0678594324e-03)
0.548            	(5.2356818258e-03 -4.2710509568e-02 1.2982493165e-01)	(2.0778190599e-03 -4.3551961286e-02 1.2875219525e-01)	(3.1578627659e-03 8.4145171812e-04 1.0727364060e-03)
0.549            	(5.0759776746e-03 -4.2971187820e-02 1.3072419917e-01)	(1.9178075624e-03 -4.3812829003e-02 1.2964660772e-01)	(3.1581701122e-03 8.4164118277e-04 1.0775914471e-03)
0.55             	(4.9487918722e-03 -4.3196477677e-02 1.3154320949e-01)	(1.7903939425e-03 -4.4038351064e-02 1.3046077955e-01)	(3.1583979297e-03 8.4187338687e-04 1.0824299366e-03)
0.551            	(4.8098304189e-03 -4.3381132338e-02 1.3224793893e-01)	(1.6513113834e-03 -4.4223273786e-02 1.3116071388e-01)	(3.1585190354e-03 8.4214144747e-04 1.0872250497e-03)
0.552            	(4.8022326899e-03 -4.3640486286e-02 1.3319617470e-01)	(1.6433317304e-03 -4.4482969375e-02 1.3210413095e-01)	(3.1589009595e-03 8.4248308903e-04 1.0920437497e-03)
0.553            	(4.1438752549e-03 -4.3750658309e-02 1.3373043864e-01)	(9.8614927444e-04 -4.4593464641e-02 1.3263372762e-01)	(3.1577259805e-03 8.4280633166e-04 1.0967110179e-03)
0.554            	(4.5945644180e-03 -4.4399486618e-02 1.3576123347e-01)	(1.4363310908e-03 -4.5242744536e-02 1.3465960973e-01)	(3.1582333271e-03 8.4325791822e-04 1.1016237405e-03)
0.555            	(4.4007089863e-03 -4.4404741749e-02 1.3592856666e-01)	(1.2422720184e-03 -4.5248454215e-02 1.3482216409e-01)	(3.1584369679e-03 8.4371246578e-04 1.1064025742e-03)
0.556            	(4.1656617882e-03 -4.4504907040e-02 1.3642360456e-01)	(1.0074003085e-03 -4.5349098504e-02 1.3531249796e-01)	(3.1582614797e-03 8.4419146429e-04 1.1111065948e-03)
0.557            	(4.2204948076e-03 -4.4831491681e-02 1.3763234226e-01)	(1.0619500582e-03 -4.5676329920e-02 1.3651643271e-01)	(3.1585447495e-03 8.4483823914e-04 1.1159095480e-03)
0.558            	(4.0460437140e-03 -4.4885140831e-02 1.3808560304e-01)	(8.8739064895e-04 -4.5730814385e-02 1.3696492256e-01)	(3.1586530651e-03 8.4567355448e-04 1.1206804861e-03)
0.559            	(3.0096360418e-03 -4.4150736233e-02 1.3592778822e-01)	(-1.4629240466e-04 -4.4996834569e-02 1.3480298910e-01)	(3.1559284465e-03 8.4609833636e-04 1.1247991279e-03)
0.56             	(4.3801131095e-03 -4.6006925817e-02 1.4175231559e-01)	(1.2223463038e-03 -4.6853991354e-02 1.4062238197e-01)	(3.1577668057e-03 8.4706553694e-04 1.1299336245e-03)
0.561            	(3.7268310255e-03 -4.5912049608e-02 1.4152735801e-01)	(5.6883339961e-04 -4.6759841345e-02 1.4039261288e-01)	(3.1579976259e-03 8.4779173651e-04 1.1347451270e-03)
0.562            	(3.6181642887e-03 -4.5884859145e-02 1.4171745423e-01)	(4.6003102077e-04 -4.6733462057e-02 1.4057800800e-01)	(3.1581332679e-03 8.4860291221e-04 1.1394462338e-03)
0.563            	(3.5023575264e-03 -4.6038316336e-02 1.4237097358e-01)	(3.4412315443e-04 -4.6887760304e-02 1.4122687384e-01)	(3.1582343720e-03 8.4944396746e-04 1.1440997323e-03)
0.564            	(2.6067308783e-03 -4.5703313697e-02 1.4086176549e-01)	(-5.4930054051e-04 -4.6552435457e-02 1.3971383479e-01)	(3.1560314188e-03 8.4912175963e-04 1.1479307031e-03)
0.565            	(4.5415493464e-03 -4.7568956254e-02 1.4786388492e-01)	(1.3817138732e-03 -4.8420091287e-02 1.4671030562e-01)	(3.1598354732e-03 8.5113503380e-04 1.1535793029e-03)
0.566            	(3.4280419384e-03 -4.6930836951e-02 1.4562107111e-01)	(2.6738653115e-04 -4.7783023494e-02 1.4446277333e-01)	(3.1606554072e-03 8.5218654307e-04 1.1582977787e-03)
0.567            	(3.5181239751e-03 -4.7353916230e-02 1.4707232265e-01)	(3.5618625451e-04 -4.8207124926e-02 1.4590927713e-01)	(3.1619377206e-03 8.5320869620e-04 1.1630455241e-03)
0.568            	(3.2266504407e-03 -4.7254995886e-02 1.4703601090e-01)	(6.4009638242e-05 -4.8109245130e-02 1.4586838774e-01)	(3.1626408025e-03 8.5424924381e-04 1.1676231647e-03)
0.569            	(3.0276186730e-03 -4.7372196896e-02 1.4763728644e-01)	(-1.3540354229e-04 -4.8227513478e-02 1.4646516054e-01)	(3.1630222153e-03 8.5531658234e-04 1.1721259010e-03)
0.57             	(2.7487705237e-03 -4.7440091098e-02 1.4801950675e-01)	(-4.1413642271e-04 -4.8296401072e-02 1.4684299927e-01)	(3.1629069464e-03 8.5630997453e-04 1.1765074812e-03)
0.571            	(2.7790741105e-03 -4.7821738931e-02 1.4938416569e-01)	(-3.8407495889e-04 -4.8679074133e-02 1.4820319002e-01)	(3.1631490694e-03 8.5733520161e-04 1.1809756645e-03)
0.572            	(2.5105678303e-03 -4.7809408235e-02 1.4954846086e-01)	(-6.5230571515e-04 -4.8667697949e-02 1.4836316604e-01)	(3.1628735454e-03 8.5828971465e-04 1.1852948192e-03)
0.573            	(2.2250434319e-03 -4.7854075303e-02 1.4994158923e-01)	(-9.3706248583e-04 -4.8713376355e-02 1.4875208445e-01)	(3.1621059177e-03 8.5930105227e-04 1.1895047800e-03)
0.574            	(2.3742498138e-03 -4.8418486893e-02 1.5178459501e-01)	(-7.8788958451e-04 -4.9278797016e-02 1.5059072143e-01)	(3.1621393983e-03 8.6031012345e-04 1.1938735782e-03)
0.575            	(2.1990970651e-03 -4.8311334208e-02 1.5176495965e-01)	(-9.6282092346e-04 -4.9172678610e-02 1.5056684087e-01)	(3.1619179886e-03 8.6134440188e-04 1.1981187784e-03)
0.576            	(1.3408575783e-03 -4.8117238339e-02 1.5118960668e-01)	(-1.8187405615e-03 -4.8979213412e-02 1.4998767905e-01)	(3.1595981398e-03 8.6197507334e-04 1.2019276299e-03)
0.577            	(2.1879401413e-03 -4.9046501939e-02 1.5453649125e-01)	(-9.7217157097e-04 -4.9909756862e-02 1.5333011627e-01)	(3.1601117122e-03 8.6325492310e-04 1.2063749826e-03)
0.578            	(1.7827336040e-03 -4.9003397365e-02 1.5449751418e-01)	(-1.3769899468e-03 -4.9867676868e-02 1.5328698634e-01)	(3.1597235508e-03 8.6427950278e-04 1.2105278334e-03)
0.579            	(1.6498092444e-03 -4.9217757198e-02 1.5535775683e-01)	(-1.5094487380e-03 -5.0083044325e-02 1.5414312906e-01)	(3.1592579824e-03 8.6528712722e-04 1.2146277661e-03)
0.58             	(1.4882810609e-03 -4.9323766605e-02 1.5592670241e-01)	(-1.6703485372e-03 -5.0190068933e-02 1.5470804002e-01)	(3.1586295981e-03 8.6630232839e-04 1.2186623871e-03)
0.581            	(1.3178756845e-03 -4.9505859580e-02 1.5669094558e-01)	(-1.8399486950e-03 -5.0373144781e-02 1.5546831029e-01)	(3.1578243794e-03 8.6728520101e-04 1.2226352923e-03)
0.582            	(1.3043808462e-03 -4.9598018162e-02 1.5727221724e-01)	(-1.8529227429e-03 -5.0466405847e-02 1.5604562863e-01)	(3.1573035891e-03 8.6838768501e-04 1.2265886116e-03)
0.583            	(3.2355493205e-05 -4.9013219719e-02 1.5597378140e-01)	(-3.1210129623e-03 -4.9882651008e-02 1.5474368567e-01)	(3.1533684555e-03 8.6943128899e-04 1.2300957360e-03)
0.584            	(1.3291463229e-03 -5.0304914354e-02 1.5994534486e-01)	(-1.8245034698e-03 -5.1175606897e-02 1.5871110636e-01)	(3.1536497927e-03 8.7069254249e-04 1.2342385024e-03)
0.585            	(4.6522463911e-04 -4.9953607015e-02 1.5896888627e-01)	(-2.6864407087e-03 -5.0825246718e-02 1.5773101986e-01)	(3.1516653478e-03 8.7163970242e-04 1.2378664131e-03)
0.586            	(1.3233891923e-03 -5.0935932623e-02 1.6245966881e-01)	(-1.8291529682e-03 -5.1809061690e-02 1.6121755869e-01)	(3.1525421605e-03 8.7312906702e-04 1.2421101114e-03)
0.587            	(1.4379151943e-04 -5.0375303884e-02 1.6064486111e-01)	(-3.0064344893e-03 -5.1249209520e-02 1.5939928798e-01)	(3.1502260088e-03 8.7390563628e-04 1.2455731344e-03)
0.588            	(9.9431655101e-04 -5.1159149271e-02 1.6361655105e-01)	(-2.1564454470e-03 -5.2034508454e-02 1.6236693559e-01)	(3.1507619980e-03 8.7535918305e-04 1.2496154640e-03)
0.589            	(5.6205828063e-04 -5.0941154037e-02 1.6317679600e-01)	(-2.5882168562e-03 -5.1817829004e-02 1.6192343983e-01)	(3.1502751368e-03 8.7667496780e-04 1.2533561665e-03)
0.59             	(1.9992389618e-04 -5.0987733457e-02 1.6355083776e-01)	(-2.9490965724e-03 -5.1865633792e-02 1.6229390699e-01)	(3.1490204686e-03 8.7790033495e-04 1.2569307725e-03)
0.591            	(-7.3790554734e-04 -5.0589687419e-02 1.6278344047e-01)	(-3.8832212055e-03 -5.1468786179e-02 1.6152328196e-01)	(3.1453156582e-03 8.7909875948e-04 1.2601585115e-03)
0.592            	(-7.7974566420e-04 -5.0932263009e-02 1.6387464356e-01)	(-3.9216800115e-03 -5.1812310662e-02 1.6261127761e-01)	(3.1419343473e-03 8.8004765305e-04 1.2633659589e-03)
0.593            	(-7.5296459830e-04 -5.1150486021e-02 1.6489394751e-01)	(-3.8920291976e-03 -5.2031664307e-02 1.6362729494e-01)	(3.1390645993e-03 8.8117828594e-04 1.2666525705e-03)